! Sonnet Data File
! From: em Version : 18.58
! From Project: Microstrip_ref
! Data is De-embedded 
! Data File Written: 05/20/2025 14:19:08
!< HDATE 12/30/2024 21:26:45
!< MDATE 12/30/2024 21:26:45
!< PARAMS
!< w = 210.0
!< END PARAMS
# GHZ S MA R 50.00000
0.100000000000000 0.0012470167336 93.734094447989 0.9998892327879 -1.325874582399 0.9998892327882 -1.325874582395 0.0012470167334 93.734094440705
0.125000000000000 0.0015577820798 92.782868837644 0.9998787813608 -1.657371364207 0.9998787813608 -1.657371364207 0.0015575564434 92.789255718846
0.150000000000000 0.0018685511533 92.036437022685 0.9998681808910 -1.988866274580 0.9998681808910 -1.988866274580 0.0018681257862 92.046650664794
0.175000000000000 0.0021792616662 91.407286632860 0.9998574358019 -2.320359377788 0.9998574358019 -2.320359377788 0.0021786619448 91.419900234796
0.200000000000000 0.0024898770585 90.851586747394 0.9998465503685 -2.651850748301 0.9998465503685 -2.651850748301 0.0024891272455 90.865721745904
0.225000000000000 0.0028003723010 90.344959923590 0.9998355287216 -2.983340470254 0.9998355287216 -2.983340470254 0.0027994953176 90.360035702032
0.250000000000000 0.0031107281999 89.872767408388 0.9998243748426 -3.314828636814 0.9998243748426 -3.314828636814 0.0031097455383 89.888379670008
0.275000000000000 0.0034209287997 89.425686708659 0.9998130925593 -3.646315349517 0.9998130925593 -3.646315349517 0.0034198604981 89.441542584087
0.300000000000000 0.0037309600780 88.997498182728 0.9998016855427 -3.977800717625 0.9998016855427 -3.977800717625 0.0037298247286 89.013379022573
0.325000000000000 0.0040408092375 88.583892382499 0.9997901573038 -4.309284857462 0.9997901573038 -4.309284857462 0.0040396240109 88.599631162722
0.350000000000000 0.0043504642968 88.181788197298 0.9997785111917 -4.640767891765 0.9997785111917 -4.640767891765 0.0043492449775 88.197255136317
0.375000000000000 0.0046599138407 87.788923591398 0.9997667503922 -4.972249949032 0.9997667503922 -4.972249949032 0.0046586748683 87.804016625326
0.400000000000000 0.0049691468602 87.403599746984 0.9997548779271 -5.303731162882 0.9997548779271 -5.303731162882 0.0049679013750 87.418238004590
0.425000000000000 0.0052781526455 87.024515477455 0.9997428966542 -5.635211671422 0.9997428966542 -5.635211671422 0.0052769125370 87.038634676118
0.450000000000000 0.0055869207114 86.650656821882 0.9997308092678 -5.966691616624 0.9997308092678 -5.966691616624 0.0055856966683 86.664205932874
0.475000000000000 0.0058954407436 86.281221498104 0.9997186183001 -6.298171143723 0.9997186183001 -6.298171143723 0.0058942423051 86.294160273837
0.500000000000000 0.0062037025582 85.915566018162 0.9997063261229 -6.629650400619 0.9997063261229 -6.629650400619 0.0062025381658 85.927863119010
0.525000000000000 0.0065116960705 85.553167914158 0.9996939349501 -6.961129537312 0.9996939349501 -6.961129537312 0.0065105731206 85.564799461319
0.550000000000000 0.0068194112701 85.193598267562 0.9996814468403 -7.292608705345 0.9996814468403 -7.292608705345 0.0068183361664 85.204546704737
0.575000000000000 0.0071268382006 84.836501406875 0.9996688637009 -7.624088057270 0.9996688637009 -7.624088057270 0.0071258164066 84.846754589542
0.600000000000000 0.0074339669427 84.481579683036 0.9996561872910 -7.955567746148 0.9996561872910 -7.955567746148 0.0074330030337 84.491130138371
0.625000000000000 0.0077407875998 84.128581900912 0.9996434192267 -8.287047925056 0.9996434192267 -8.287047925056 0.0077398853143 84.137426217412
0.650000000000000 0.0080472902857 83.777294422437 0.9996305609853 -8.618528746632 0.9996305609853 -8.618528746632 0.0080464525765 83.785432739720
0.675000000000000 0.0083534651134 83.427534248774 0.9996176139105 -8.950010362642 0.9996176139105 -8.950010362642 0.0083526941980 83.434969825548
0.700000000000000 0.0086593021862 83.079143586446 0.9996045792176 -9.281492923576 0.9996045792176 -9.281492923576 0.0086585995959 83.085882430449
0.725000000000000 0.0089647915890 82.731985539220 0.9995914579996 -9.612976578269 0.9995914579996 -9.612976578269 0.0089641582175 82.738036086769
0.750000000000000 0.0092699233810 82.385940662769 0.9995782512329 -9.944461473549 0.9995782512329 -9.944461473549 0.0092693595317 82.391313498551
0.775000000000000 0.0095746875893 82.040904187306 0.9995649597833 -10.27594775392 0.9995649597833 -10.27594775392 0.0095741930214 82.045611797066
0.800000000000000 0.0098790742032 81.696783761643 0.9995515844128 -10.60743556127 0.9995515844128 -10.60743556127 0.0098786481770 81.700840312273
0.825000000000000 0.0101830731689 81.353497608156 0.9995381257855 -10.93892503461 0.9995381257855 -10.93892503461 0.0101827144896 81.356918750647
0.850000000000000 0.0104866743858 81.010973003712 0.9995245844745 -11.27041630983 0.9995245844745 -11.27041630983 0.0104863814457 81.013775695485
0.875000000000000 0.0107898677024 80.669145021325 0.9995109609686 -11.60190951949 0.9995109609686 -11.60190951949 0.0107896385223 80.671347365136
0.900000000000000 0.0110926429131 80.327955481601 0.9994972556788 -11.93340479266 0.9994972556788 -11.93340479266 0.0110924751822 80.329576578760
0.925000000000000 0.0113949897563 79.987352074254 0.9994834689449 -12.26490225476 0.9994834689449 -12.26490225476 0.0113948808701 79.988411890315
0.950000000000000 0.0116968979116 79.647287618104 0.9994696010425 -12.59640202742 0.9994696010425 -12.59640202742 0.0116968450092 79.647806859528
0.975000000000000 0.0119983569985 79.307719438385 0.9994556521900 -12.92790422840 0.9994556521899 -12.92790422841 0.0119983569983 79.307719439412
1.000000000000000 0.0122993565776 78.968608815520 0.9994416225516 -13.25940897151 0.9994416225516 -13.25940897151 0.0122994062090 78.968111431358
1.025000000000000 0.0125998861447 78.629920566572 0.9994275122511 -13.59091636657 0.9994275122511 -13.59091636657 0.0125999819843 78.628948079200
1.050000000000000 0.0128999351364 78.291622617651 0.9994133213706 -13.92242651935 0.9994133213706 -13.92242651935 0.0129000736362 78.290197643947
1.075000000000000 0.0131994929274 77.953685685353 0.9993990499605 -14.25393953160 0.9993990499605 -14.25393953160 0.0131996704451 77.951831094129
1.100000000000000 0.0134985488315 77.616082981425 0.9993846980449 -14.58545550107 0.9993846980449 -14.58545550107 0.0134987616583 77.613821815910
1.125000000000000 0.0137970921031 77.278789959224 0.9993702656268 -14.91697452150 0.9993702656268 -14.91697452150 0.0137973364903 77.276145365059
1.150000000000000 0.0140951119381 76.941784092461 0.9993557526944 -15.24849668273 0.9993557526944 -15.24849668273 0.0140953841220 76.938779250814
1.175000000000000 0.0143925974758 76.605044681395 0.9993411592255 -15.58002207074 0.9993411592255 -15.58002207074 0.0143928937012 76.601702746775
1.200000000000000 0.0146895378006 76.268552682355 0.9993264851936 -15.91155076774 0.9993264851936 -15.91155076774 0.0146898543431 76.264896724909
1.225000000000000 0.0149859219445 75.932290557304 0.9993117305722 -16.24308285229 0.9993117305722 -16.24308285229 0.0149862551308 75.928343509241
1.250000000000000 0.0152817388892 75.596242140555 0.9992968953391 -16.57461839939 0.9992968953391 -16.57461839939 0.0152820851166 75.592026746478
1.275000000000000 0.0155769775688 75.260392520267 0.9992819794817 -16.90615748062 0.9992819794817 -16.90615748062 0.0155773333232 75.255931291193
1.300000000000000 0.0158716268729 74.924727932741 0.9992669830000 -17.23770016429 0.9992669830000 -17.23770016429 0.0158719887451 74.920043103589
1.325000000000000 0.0161656756493 74.589235667767 0.9992519059112 -17.56924651557 0.9992519059112 -17.56924651557 0.0161660403503 74.584349158129
1.350000000000000 0.0164591127071 74.253903983646 0.9992367482528 -17.90079659666 0.9992367482528 -17.90079659666 0.0164594770821 74.248837361656
1.375000000000000 0.0167519268203 73.918722030560 0.9992215100860 -18.23235046694 0.9992215100860 -18.23235046694 0.0167522878613 73.913496479723
1.400000000000000 0.0170441067308 73.583679781338 0.9992061914986 -18.56390818317 0.9992061914986 -18.56390818317 0.0170444615882 73.578316070143
1.425000000000000 0.0173356411523 73.248767968668 0.9991907926080 -18.89546979962 0.9991907926080 -18.89546979962 0.0173359871448 73.243286422854
1.450000000000000 0.0176265187733 72.913978027981 0.9991753135632 -19.22703536828 0.9991753135632 -19.22703536828 0.0176268533974 72.908398505321
1.475000000000000 0.0179167282610 72.579302045370 0.9991597545474 -19.55860493903 0.9991597545474 -19.55860493903 0.0179170491989 72.573643912857
1.500000000000000 0.0182062582650 72.244732709958 0.9991441157795 -19.89017855985 0.9991441157795 -19.89017855985 0.0182065633914 72.239014823242
1.525000000000000 0.0184950974207 71.910263270196 0.9991283975164 -20.22175627694 0.9991283975164 -20.22175627694 0.0184953848088 71.904503955210
1.550000000000000 0.0187832343531 71.575887493738 0.9991126000537 -20.55333813497 0.9991126000537 -20.55333813497 0.0187835022793 71.570104530352
1.575000000000000 0.0190706576802 71.241599630407 0.9990967237274 -20.88492417725 0.9990967237274 -20.88492417725 0.0190709046281 71.235810238045
1.600000000000000 0.0193573560167 70.907394378056 0.9990807689147 -21.21651444586 0.9990807689147 -21.21651444586 0.0193575806803 70.901615203163
1.625000000000000 0.0196433179779 70.573266850923 0.9990647360349 -21.54810898190 0.9990647360349 -21.54810898190 0.0196435192631 70.567513956195
1.650000000000000 0.0199285321825 70.239212550333 0.9990486255496 -21.87970782563 0.9990486255496 -21.87970782563 0.0199287092088 70.233501405608
1.675000000000000 0.0202129872566 69.905227337456 0.9990324379634 -22.21131101662 0.9990324379634 -22.21131101662 0.0202131393573 69.899572812197
1.700000000000000 0.0204966718369 69.571307407978 0.9990161738239 -22.54291859397 0.9990161738239 -22.54291859397 0.0204967985587 69.565723765256
1.725000000000000 0.0207795745739 69.237449268496 0.9989998337215 -22.87453059643 0.9989998337215 -22.87453059643 0.0207796756757 69.231950160395
1.750000000000000 0.0210616841351 68.903649714508 0.9989834182898 -23.20614706260 0.9989834182898 -23.20614706260 0.0210617595865 68.898248178879
1.775000000000000 0.0213429892082 68.569905809830 0.9989669282044 -23.53776803102 0.9989669282044 -23.53776803102 0.0213430391867 68.564614268322
1.800000000000000 0.0216234785042 68.236214867380 0.9989503641830 -23.86939354038 0.9989503641830 -23.86939354038 0.0216235033919 68.231045124672
1.825000000000000 0.0219031407601 67.902574431159 0.9989337269849 -24.20102362962 0.9989337269849 -24.20102362962 0.0219031411401 67.897537675338
1.850000000000000 0.0221819647414 67.568982259419 0.9989170174095 -24.53265833810 0.9989170174095 -24.53265833810 0.0221819413938 67.564089063430
1.875000000000000 0.0224599392457 67.235436308848 0.9989002362962 -24.86429770568 0.9989002362962 -24.86429770568 0.0224598931422 67.230696632956
1.900000000000000 0.0227370531043 66.901934719758 0.9988833845232 -25.19594177287 0.9988833845232 -25.19594177287 0.0227369854029 66.897357914972
1.925000000000000 0.0230132951849 66.568475802202 0.9988664630060 -25.52759058096 0.9988664630060 -25.52759058096 0.0230132072247 66.564070614585
1.950000000000000 0.0232886543943 66.235058022921 0.9988494726971 -25.85924417208 0.9988494726971 -25.85924417208 0.0232885476885 66.230832598760
1.975000000000000 0.0235631196802 65.901679993126 0.9988324145839 -26.19090258936 0.9988324145839 -26.19090258936 0.0235629959096 65.897641884875
2.000000000000000 0.0238366800332 65.568340456997 0.9988152896881 -26.52256587696 0.9988152896881 -26.52256587696 0.0238365410395 65.564496629985
2.025000000000000 0.0241093244891 65.235038280936 0.9987980990639 -26.85423408019 0.9987980990639 -26.85423408019 0.0241091722673 65.231395120743
2.050000000000000 0.0243810421306 64.901772443433 0.9987808437970 -27.18590724560 0.9987808437970 -27.18590724560 0.0243808788210 64.898335763940
2.075000000000000 0.0246518220887 64.568542025607 0.9987635250029 -27.51758542104 0.9987635250029 -27.51758542104 0.0246516499693 64.565317077627
2.100000000000000 0.0249216535447 64.235346202303 0.9987461438254 -27.84926865571 0.9987461438254 -27.84926865571 0.0249214750230 64.232337682796
2.125000000000000 0.0251905257316 63.902184233767 0.9987287014356 -28.18095700023 0.9987287014356 -28.18095700023 0.0251903433356 63.899396295558
2.150000000000000 0.0254584279351 63.569055457854 0.9987111990298 -28.51265050671 0.9987111990298 -28.51265050671 0.0254582443052 63.566491719839
2.175000000000000 0.0257253494954 63.235959282706 0.9986936378285 -28.84434922879 0.9986936378285 -28.84434922879 0.0257251673750 63.233622840512
2.200000000000000 0.0259912798077 62.902895179935 0.9986760190744 -29.17605322164 0.9986760190744 -29.17605322164 0.0259911020348 62.900788616991
2.225000000000000 0.0262562083241 62.569862678244 0.9986583440316 -29.50776254206 0.9986583440316 -29.50776254206 0.0262560378215 62.567988077209
2.250000000000000 0.0265201245534 62.236861357456 0.9986406139835 -29.83947724847 0.9986406139835 -29.83947724847 0.0265199643198 62.235220312015
2.275000000000000 0.0267830180631 61.903890842967 0.9986228302315 -30.17119740093 0.9986228302315 -30.17119740093 0.0267828711635 61.902484469931
2.300000000000000 0.0270448784793 61.570950800568 0.9986049940938 -30.50292306120 0.9986049940938 -30.50292306120 0.0270447480359 61.569779752250
2.325000000000000 0.0273056954877 61.238040931624 0.9985871069037 -30.83465429269 0.9985871069037 -30.83465429269 0.0273055846700 61.237105408484
2.350000000000000 0.0275654588341 60.905160968604 0.9985691700082 -31.16639116053 0.9985691700082 -31.16639116053 0.0275653708499 60.904460732112
2.375000000000000 0.0278241583250 60.572310670929 0.9985511847669 -31.49813373154 0.9985511847669 -31.49813373154 0.0278240964104 60.571845056636
2.400000000000000 0.0280817838278 60.239489821125 0.9985331525504 -31.82988207424 0.9985331525504 -31.82988207424 0.0280817512380 60.239257751912
2.425000000000000 0.0283383252709 59.906698223111 0.9985150747403 -32.16163625884 0.9985150747403 -32.16163625885 0.0283383252712 59.906698222967
2.450000000000000 0.0285937726456 59.573935689702 0.9984969527217 -32.49339635727 0.9984969527217 -32.49339635727 0.0285938085003 59.574165895739
2.475000000000000 0.0288481160032 59.241202058028 0.9984787878947 -32.82516244310 0.9984787878947 -32.82516244310 0.0288481909684 59.241660236400
2.500000000000000 0.0291013454580 58.908497168309 0.9984605816603 -33.15693459161 0.9984605816603 -33.15693459161 0.0291014627711 58.909180726427
2.525000000000000 0.0293534511861 58.575820870541 0.9984423354258 -33.48871287969 0.9984423354258 -33.48871287969 0.0293536140570 58.576726871259
2.550000000000000 0.0296044234256 58.243173020317 0.9984240506026 -33.82049738590 0.9984240506026 -33.82049738590 0.0296046350276 58.244298195779
2.575000000000000 0.0298542524766 57.910553476709 0.9984057286048 -34.15228819038 0.9984057286048 -34.15228819038 0.0298545159374 57.911894242244
2.600000000000000 0.0301029287012 57.577962100348 0.9983873708484 -34.48408537488 0.9983873708484 -34.48408537488 0.0301032470941 57.579514568367
2.625000000000000 0.0303504425233 57.245398751670 0.9983689787503 -34.81588902271 0.9983689787503 -34.81588902271 0.0303508188588 57.247158745576
2.650000000000000 0.0305967844283 56.912863289348 0.9983505537274 -35.14769921870 0.9983505537274 -35.14769921870 0.0305972216455 56.914826357422
2.675000000000000 0.0308419449634 56.580355568882 0.9983320971961 -35.47951604921 0.9983320971961 -35.47951604921 0.0308424459217 56.582516998153
2.700000000000000 0.0310859147368 56.247875441344 0.9983136105706 -35.81133960205 0.9983136105706 -35.81133960205 0.0310864822079 56.250230271393
2.725000000000000 0.0313286844178 55.915422752252 0.9982950952631 -36.14316996650 0.9982950952631 -36.14316996650 0.0313293210778 55.917965788979
2.750000000000000 0.0315702447367 55.582997340592 0.9982765526826 -36.47500723323 0.9982765526826 -36.47500723323 0.0315709531582 55.585723169906
2.775000000000000 0.0318105864838 55.250599037951 0.9982579842343 -36.80685149431 0.9982579842343 -36.80685149431 0.0318113691289 55.253502039382
2.800000000000000 0.0320497005101 54.918227667785 0.9982393913189 -37.13870284314 0.9982393913189 -37.13870284314 0.0320505597226 54.921302027994
2.825000000000000 0.0322875777259 54.585883044765 0.9982207753322 -37.47056137444 0.9982207753322 -37.47056137444 0.0322885157251 54.589122770966
2.850000000000000 0.0325242091014 54.253564974255 0.9982021376646 -37.80242718419 0.9982021376646 -37.80242718419 0.0325252279745 54.256963907500
2.875000000000000 0.0327595856658 53.921273251864 0.9981834797001 -38.13430036963 0.9981834797001 -38.13430036963 0.0327606873621 53.924825080231
2.900000000000000 0.0329936985071 53.589007663082 0.9981648028166 -38.46618102919 0.9981648028166 -38.46618102919 0.0329948848312 53.592705934710
2.925000000000000 0.0332265387717 53.256767983018 0.9981461083849 -38.79806926247 0.9981461083849 -38.79806926247 0.0332278113782 53.260606119005
2.950000000000000 0.0334580976640 52.924553976183 0.9981273977684 -39.12996517022 0.9981273977684 -39.12996517022 0.0334594580513 52.928525283335
2.975000000000000 0.0336883664462 52.592365396366 0.9981086723231 -39.46186885427 0.9981086723231 -39.46186885427 0.0336898159513 52.596463079787
3.000000000000000 0.0339173364378 52.260201986552 0.9980899333968 -39.79378041752 0.9980899333968 -39.79378041752 0.0339188762313 52.264419162071
3.025000000000000 0.0341449990151 51.928063478914 0.9980711823294 -40.12569996391 0.9980711823294 -40.12569996391 0.0341466300962 51.932393185331
3.050000000000000 0.0343713456112 51.595949594847 0.9980524204520 -40.45762759836 0.9980524204520 -40.45762759836 0.0343730688032 51.600384806000
3.075000000000000 0.0345963677153 51.263860045051 0.9980336490871 -40.78956342675 0.9980336490871 -40.78956342675 0.0345981836615 51.268393681709
3.100000000000000 0.0348200568723 50.931794529664 0.9980148695485 -41.12150755592 0.9980148695485 -41.12150755592 0.0348219660320 50.936419471208
3.125000000000000 0.0350424046828 50.599752738421 0.9979960831406 -41.45346009357 0.9979960831406 -41.45346009357 0.0350444073278 50.604461834341
3.150000000000000 0.0352634028024 50.267734350866 0.9979772911591 -41.78542114829 0.9979772911591 -41.78542114829 0.0352654990137 50.272520432048
3.175000000000000 0.0354830429418 49.935739036576 0.9979584948899 -42.11739082950 0.9979584948899 -42.11739082950 0.0354852326063 49.940594926383
3.200000000000000 0.0357013168659 49.603766455430 0.9979396956100 -42.44936924743 0.9979396956100 -42.44936924743 0.0357035996742 49.608684980566
3.225000000000000 0.0359182163940 49.271816257888 0.9979208945866 -42.78135651307 0.9979208945866 -42.78135651307 0.0359205918376 49.276790259044
3.250000000000000 0.0361337333990 48.939888085304 0.9979020930776 -43.11335273818 0.9979020930776 -43.11335273818 0.0361362007687 48.944910427586
3.275000000000000 0.0363478598077 48.607981570256 0.9978832923313 -43.44535803522 0.9978832923313 -43.44535803522 0.0363504181916 48.613045153377
3.300000000000000 0.0365605876000 48.276096336883 0.9978644935866 -43.77737251737 0.9978644935866 -43.77737251737 0.0365632358823 48.281194105133
3.325000000000000 0.0367719088091 47.944232001243 0.9978456980727 -44.10939629847 0.9978456980727 -44.10939629847 0.0367746456688 47.949356953222
3.350000000000000 0.0369818155206 47.612388171688 0.9978269070094 -44.44142949300 0.9978269070094 -44.44142949300 0.0369846394310 47.617533369797
3.375000000000000 0.0371902998732 47.280564449233 0.9978081216071 -44.77347221608 0.9978081216071 -44.77347221608 0.0371932091012 47.285723028934
3.400000000000000 0.0373973540574 46.948760427954 0.9977893430666 -45.10552458339 0.9977893430666 -45.10552458339 0.0374003466637 46.953925606770
3.425000000000000 0.0376029703162 46.616975695362 0.9977705725794 -45.43758671125 0.9977705725794 -45.43758671125 0.0376060441554 46.622140781655
3.450000000000000 0.0378071409444 46.285209832819 0.9977518113278 -45.76965871648 0.9977518113278 -45.76965871648 0.0378102936654 46.290368234292
3.475000000000000 0.0380098582886 45.953462415922 0.9977330604846 -46.10174071648 0.9977330604846 -46.10174071648 0.0380130873356 45.958607647888
3.500000000000000 0.0382111147469 45.621733014903 0.9977143212138 -46.43383282915 0.9977143212138 -46.43383282915 0.0382144173607 45.626858708293
3.525000000000000 0.0384109027691 45.290021195035 0.9976955946699 -46.76593517290 0.9976955946699 -46.76593517290 0.0384142759881 45.295121104154
3.550000000000000 0.0386092148560 44.958326517025 0.9976768819989 -47.09804786663 0.9976768819989 -47.09804786663 0.0386126555187 44.963394527042
3.575000000000000 0.0388060435599 44.626648537407 0.9976581843374 -47.43017102969 0.9976581843374 -47.43017102969 0.0388095483063 44.631678671599
3.600000000000000 0.0390013814838 44.294986808941 0.9976395028136 -47.76230478191 0.9976395028136 -47.76230478191 0.0390049467584 44.299973235657
3.625000000000000 0.0391952212821 43.963340880989 0.9976208385467 -48.09444924356 0.9976208385467 -48.09444924356 0.0391988433364 43.968277920375
3.650000000000000 0.0393875556599 43.631710299909 0.9976021926477 -48.42660453531 0.9976021926477 -48.42660453531 0.0393912305554 43.636592430345
3.675000000000000 0.0395783773732 43.300094609426 0.9975835662188 -48.75877077829 0.9975835662188 -48.75877077829 0.0395821009847 43.304916473713
3.700000000000000 0.0397676792288 42.968493351002 0.9975649603539 -49.09094809399 0.9975649603539 -49.09094809399 0.0397714472482 42.973249762277
3.725000000000000 0.0399554540843 42.636906064202 0.9975463761386 -49.42313660433 0.9975463761386 -49.42313660433 0.0399592620244 42.641592011585
3.750000000000000 0.0401416948480 42.305332287044 0.9975278146504 -49.75533643159 0.9975278146504 -49.75533643159 0.0401455380467 42.309942941019
3.775000000000000 0.0403263944789 41.973771556359 0.9975092769586 -50.08754769843 0.9975092769586 -50.08754769843 0.0403302681039 41.978302273876
3.800000000000000 0.0405095459869 41.642223408118 0.9974907641247 -50.41977052788 0.9974907641247 -50.41977052788 0.0405134450401 41.646669737440
3.825000000000000 0.0406911424324 41.310687377773 0.9974722772021 -50.75200504333 0.9974722772021 -50.75200504333 0.0406950617554 41.315045063039
3.850000000000000 0.0408711769268 40.979163000574 0.9974538172366 -51.08425136851 0.9974538172366 -51.08425136851 0.0408751112059 40.983427986094
3.875000000000000 0.0410496426323 40.647649811891 0.9974353852663 -51.41650962749 0.9974353852663 -51.41650962749 0.0410535864042 40.651818246169
3.900000000000000 0.0412265327617 40.316147347508 0.9974169823215 -51.74877994471 0.9974169823215 -51.74877994471 0.0412304804196 40.320215586992
3.925000000000000 0.0414018405790 39.984655143934 0.9973986094251 -52.08106244490 0.9973986094251 -52.08106244490 0.0414057863785 39.988619756490
3.950000000000000 0.0415755593991 39.653172738678 0.9973802675926 -52.41335725314 0.9973802675926 -52.41335725314 0.0415794974645 39.657030506791
3.975000000000000 0.0417476825879 39.321699670531 0.9973619578320 -52.74566449483 0.9973619578320 -52.74566449483 0.0417516069190 39.325447594237
4.000000000000000 0.0419182035625 38.990235479841 0.9973436811440 -53.07798429567 0.9973436811440 -53.07798429567 0.0419221080416 38.993870779373
4.025000000000000 0.0420871157914 38.658779708762 0.9973254385221 -53.41031678171 0.9973254385221 -53.41031678171 0.0420909941899 38.662299826930
4.050000000000000 0.0422544127941 38.327331901514 0.9973072309525 -53.74266207927 0.9973072309525 -53.74266207927 0.0422582587807 38.330734505808
4.075000000000000 0.0424200881419 37.995891604624 0.9972890594144 -54.07502031502 0.9972890594144 -54.07502031502 0.0424238952893 37.999174589038
4.100000000000001 0.0425841354575 37.664458367154 0.9972709248798 -54.40739161589 0.9972709248798 -54.40739161589 0.0425878972509 37.667619853737
4.125000000000000 0.0427465484154 37.333031740930 0.9972528283137 -54.73977610916 0.9972528283137 -54.73977610916 0.0427502582601 37.336070081063
4.150000000000000 0.0429073207420 37.001611280758 0.9972347706738 -55.07217392236 0.9972347706738 -55.07217392236 0.0429109719718 37.004525056148
4.175000000000000 0.0430664462157 36.670196544633 0.9972167529111 -55.40458518337 0.9972167529111 -55.40458518337 0.0430700321011 36.672984568040
4.200000000000000 0.0432239186669 36.338787093932 0.9971987759695 -55.73701002034 0.9971987759695 -55.73701002034 0.0432274324242 36.341448409609
4.225000000000001 0.0433797319785 36.007382493617 0.9971808407860 -56.06944856172 0.9971808407860 -56.06944856172 0.0433831667783 36.009916377485
4.250000000000000 0.0435338800858 35.675982312407 0.9971629482903 -56.40190093626 0.9971629482903 -56.40190093626 0.0435372290619 35.678388271945
4.275000000000000 0.0436863569767 35.344586122963 0.9971450994056 -56.73436727300 0.9971450994056 -56.73436727300 0.0436896132357 35.346863896823
4.300000000000001 0.0438371566920 35.013193502054 0.9971272950477 -57.06684770128 0.9971272950477 -57.06684770128 0.0438403133224 35.015343059403
4.325000000000000 0.0439862733253 34.681804030719 0.9971095361257 -57.39934235072 0.9971095361257 -57.39934235072 0.0439893234071 34.683825570298
4.350000000000001 0.0441337010238 34.350417294421 0.9970918235415 -57.73185135127 0.9970918235415 -57.73185135127 0.0441366376381 34.352311243334
4.375000000000000 0.0442794339875 34.019032883200 0.9970741581901 -58.06437483313 0.9970741581901 -58.06437483313 0.0442822502265 34.020799895417
4.400000000000000 0.0444234664704 33.687650391810 0.9970565409594 -58.39691292681 0.9970565409594 -58.39691292681 0.0444261554474 33.689291346404
4.425000000000001 0.0445657927801 33.356269419860 0.9970389727301 -58.72946576311 0.9970389727301 -58.72946576311 0.0445683476395 33.357785418955
4.450000000000000 0.0447064072782 33.024889571940 0.9970214543758 -59.06203347314 0.9970214543758 -59.06203347314 0.0447088212057 33.026281938389
4.475000000000001 0.0448453043802 32.693510457750 0.9970039867631 -59.39461618827 0.9970039867631 -59.39461618827 0.0448475706136 32.694780732534
4.500000000000000 0.0449824785562 32.362131692215 0.9969865707510 -59.72721404018 0.9969865707510 -59.72721404018 0.0449845903957 32.363281631561
4.525000000000000 0.0451179243309 32.030752895604 0.9969692071915 -60.05982716085 0.9969692071915 -60.05982716085 0.0451198751496 32.031784467826
4.550000000000001 0.0452516362835 31.699373693635 0.9969518969291 -60.39245568253 0.9969518969291 -60.39245568253 0.0452534195384 31.700289075699
4.575000000000000 0.0453836090485 31.367993717585 0.9969346408009 -60.72509973778 0.9969346408009 -60.72509973778 0.0453852182910 31.368795291394
4.600000000000001 0.0455138373153 31.036612604387 0.9969174396364 -61.05775945944 0.9969174396364 -61.05775945944 0.0455152662026 31.037302952783
4.625000000000000 0.0456423158289 30.705229996729 0.9969002942576 -61.39043498063 0.9969002942576 -61.39043498063 0.0456435581347 30.705811899219
4.650000000000000 0.0457690393899 30.373845543141 0.9968832054788 -61.72312643478 0.9968832054788 -61.72312643478 0.0457700890154 30.374321971344
4.675000000000001 0.0458940028546 30.042458898097 0.9968661741066 -62.05583395560 0.9968661741066 -62.05583395560 0.0458948538401 30.042833010908
4.700000000000000 0.0460172011354 29.711069722085 0.9968492009395 -62.38855767708 0.9968492009395 -62.38855767708 0.0460178476712 29.711344860558
4.725000000000001 0.0461386292011 29.379677681703 0.9968322867684 -62.72129773351 0.9968322867684 -62.72129773351 0.0461390656390 29.379857363654
4.750000000000000 0.0462582820770 29.048282449731 0.9968154323759 -63.05405425946 0.9968154323759 -63.05405425946 0.0462585029413 29.048370364058
4.775000000000000 0.0463761548441 28.716883708555 0.9967986385380 -63.38682738979 0.9967986385385 -63.38682738976 0.0463761548440 28.716883708219
4.800000000000001 0.0464922407850 28.385478919367 0.9967819046564 -63.71961723334 0.9967819046564 -63.71961723334 0.0464920176067 28.385395644625
4.825000000000000 0.0466065331599 28.054065636297 0.9967652301353 -64.05242389862 0.9967652301353 -64.05242389862 0.0466060875961 28.053904379132
4.850000000000001 0.0467190271150 27.722643659364 0.9967486157281 -64.38524752035 0.9967486157281 -64.38524752035 0.0467183603418 27.722409671435
4.875000000000000 0.0468297178602 27.391212805536 0.9967320621860 -64.71808823360 0.9967320621860 -64.71808823360 0.0468288314374 27.390911286611
4.900000000000000 0.0469386006706 27.059772905304 0.9967155702560 -65.05094617384 0.9967155702560 -65.05094617384 0.0469374965407 27.059408992965
4.925000000000001 0.0470456708869 26.728323802589 0.9966991406812 -65.38382147686 0.9966991406812 -65.38382147686 0.0470443513742 26.727902562163
4.950000000000000 0.0471509239162 26.396865354646 0.9966827742006 -65.71671427885 0.9966827742006 -65.71671427885 0.0471493917248 26.396391769388
4.975000000000001 0.0472543552328 26.065397431963 0.9966664715489 -66.04962471637 0.9966664715489 -66.04962471637 0.0472526134436 26.064876393486
5.000000000000000 0.0473559603785 25.733919918150 0.9966502334569 -66.38255292635 0.9966502334569 -66.38255292635 0.0473540124463 25.733356217132
5.025000000000000 0.0474557349637 25.402432709822 0.9966340606506 -66.71549904609 0.9966340606506 -66.71549904609 0.0474535847130 25.401831027003
5.050000000000001 0.0475536746678 25.070935716483 0.9966179538519 -67.04846321327 0.9966179538519 -67.04846321327 0.0475513262881 25.070300613953
5.075000000000000 0.0476497752397 24.739428860391 0.9966019137782 -67.38144556595 0.9966019137782 -67.38144556595 0.0476472332807 24.738764773207
5.100000000000001 0.0477440324991 24.407912076433 0.9965859411423 -67.71444624257 0.9965859411423 -67.71444624257 0.0477413018639 24.407223304551
5.125000000000000 0.0478364423366 24.076385311975 0.9965700366524 -68.04746538197 0.9965700366524 -68.04746538197 0.0478335282753 24.075676012547