! Sonnet Data File
! From: em Version : 18.58
! From Project: Microstrip_ref
! Data is De-embedded 
! Data File Written: 05/20/2025 14:19:08
!< HDATE 12/30/2024 21:26:45
!< MDATE 12/30/2024 21:26:45
!< PARAMS
!< w = 220.0
!< END PARAMS
# GHZ S MA R 50.00000
0.100000000000000 7.7986173730e-4 96.965290011779 0.9998872214893 -1.326701727829 0.9998872214894 -1.326701727816 7.7986173769e-4 96.965289982352
0.125000000000000 9.7232641895e-4 95.618376382027 0.9998766479609 -1.658369873502 0.9998766479609 -1.658369873502 9.7211500762e-4 95.629351761411
0.150000000000000 0.0011649527616 94.606129617013 0.9998660135060 -1.990039503247 0.9998660135060 -1.990039503247 0.0011645557284 94.623485522858
0.175000000000000 0.0013576457993 93.786319087099 0.9998553199413 -2.321710628686 0.9998553199413 -2.321710628686 0.0013570890225 93.807527292768
0.200000000000000 0.0015503535822 93.087298183072 0.9998445690358 -2.653383269386 0.9998445690358 -2.653383269386 0.0015496619504 93.110821806618
0.225000000000000 0.0017430434741 92.469070551091 0.9998337624991 -2.985057452036 0.9998337624991 -2.985057452036 0.0017422404536 92.493907196072
0.250000000000000 0.0019356925859 91.907556498045 0.9998229019778 -3.316733210019 0.9998229019778 -3.316733210019 0.0019348000438 91.933017903453
0.275000000000000 0.0021282833981 91.387393145010 0.9998119890526 -3.648410582974 0.9998119890526 -3.648410582974 0.0021273215417 91.412988418301
0.300000000000000 0.0023208015604 90.898317459251 0.9998010252357 -3.980089616365 0.9998010252357 -3.980089616365 0.0023197889323 90.923686524996
0.325000000000000 0.0025132346988 90.433211855279 0.9997900119688 -4.311770361048 0.9997900119688 -4.311770361048 0.0025121882044 90.458085246951
0.350000000000000 0.0027055717306 89.986984413400 0.9997789506218 -4.643452872846 0.9997789506218 -4.643452872846 0.0027045066822 90.011157786684
0.375000000000000 0.0028978024493 89.555895600023 0.9997678424915 -4.975137212124 0.9997678424915 -4.975137212124 0.0028967326212 89.579212911228
0.400000000000000 0.0030899172622 89.137136758260 0.9997566888016 -5.306823443376 0.9997566888016 -5.306823443376 0.0030888549524 89.159478769181
0.425000000000000 0.0032819070191 88.728556990874 0.9997454907024 -5.638511634825 0.9997454907024 -5.638511634825 0.0032808631149 88.749833170850
0.450000000000000 0.0034737628951 88.328480874844 0.9997342492710 -5.970201858026 0.9997342492710 -5.970201858026 0.0034727469415 88.348623539363
0.475000000000000 0.0036654763092 87.935583621227 0.9997229655129 -6.301894187491 0.9997229655129 -6.301894187491 0.0036644965786 87.954543584844
0.500000000000000 0.0038570388658 87.548803617304 0.9997116403623 -6.633588700326 0.9997116403623 -6.633588700326 0.0038561024282 87.566546897023
0.525000000000000 0.0040484423111 87.167279914666 0.9997002746845 -6.965285475877 0.9997002746845 -6.965285475877 0.0040475551051 87.183785178448
0.550000000000000 0.0042396785009 86.790306740301 0.9996888692775 -7.296984595400 0.9996888692775 -7.296984595400 0.0042388454037 86.805563294607
0.575000000000000 0.0044307393755 86.417299858227 0.9996774248741 -7.628686141753 0.9996774248741 -7.628686141753 0.0044299642726 86.431306032733
0.600000000000000 0.0046216169399 86.047771330602 0.9996659421448 -7.960390199093 0.9996659421448 -7.960390199093 0.0046209027940 86.060533160463
0.625000000000000 0.0048123032485 85.681310329578 0.9996544217005 -8.292096852603 0.9996544217005 -8.292096852603 0.0048116521669 85.692840464325
0.650000000000000 0.0050027903921 85.317568373045 0.9996428640950 -8.623806188239 0.9996428640950 -8.623806188239 0.0050022036933 85.327885160342
0.675000000000000 0.0051930704886 84.956247838351 0.9996312698292 -8.955518292490 0.9996312698292 -8.955518292490 0.0051925487666 84.965374545033
0.700000000000000 0.0053831356736 84.597092935443 0.9996196393533 -9.287233252168 0.9996196393533 -9.287233252168 0.0053826788614 84.605057077425
0.725000000000000 0.0055729780948 84.239882546134 0.9996079730713 -9.618951154207 0.9996079730713 -9.618951154207 0.0055725855252 84.246715306079
0.750000000000000 0.0057625899053 83.884424494351 0.9995962713439 -9.950672085495 0.9995962713439 -9.950672085495 0.0057622603708 83.890160210806
0.775000000000000 0.0059519632600 83.530550924280 0.9995845344923 -10.28239613272 0.9995845344923 -10.28239613272 0.0059516950697 83.535226639858
0.800000000000000 0.0061410903114 83.178114544196 0.9995727628020 -10.61412338223 0.9995727628020 -10.61412338223 0.0061408813464 83.181769603088
0.825000000000000 0.0063299632071 82.826985552204 0.9995609565266 -10.94585391994 0.9995609565266 -10.94585391994 0.0063298109736 82.829661239416
0.850000000000000 0.0065185740872 82.477049103536 0.9995491158911 -11.27758783119 0.9995491158911 -11.27758783119 0.0065184757676 82.478788319776
0.875000000000000 0.0067069150831 82.128203210969 0.9995372410961 -11.60932520075 0.9995372410961 -11.60932520075 0.0067068675843 82.129050178295
0.900000000000000 0.0068949783163 81.780356989554 0.9995253323207 -11.94106611274 0.9995253323208 -11.94106611272 0.0068949783166 81.780356986271
0.925000000000000 0.0070827558963 81.433429210972 0.9995133897274 -12.27281065032 0.9995133897274 -12.27281065032 0.0070827998888 81.432628319115
0.950000000000000 0.0072702399240 81.087347021346 0.9995014134632 -12.60455889631 0.9995014134632 -12.60455889631 0.0072703242591 81.085791917408
0.975000000000000 0.0074574224878 80.742044937644 0.9994894036653 -12.93631093250 0.9994894036653 -12.93631093250 0.0074575434124 80.739782680159
1.000000000000000 0.0076442956665 80.397463932856 0.9994773604629 -13.26806684003 0.9994773604629 -13.26806684003 0.0076444493610 80.394541778150
1.025000000000000 0.0078308515290 80.053550677333 0.9994652839807 -13.59982669930 0.9994652839807 -13.59982669930 0.0078310341427 80.050015908623
1.050000000000000 0.0080170821362 79.710256883259 0.9994531743418 -13.93159059003 0.9994531743418 -13.93159059003 0.0080172898195 79.706156654074
1.075000000000000 0.0082029795414 79.367538739218 0.9994410316701 -14.26335859128 0.9994410316701 -14.26335859128 0.0082032084765 79.362919929890
1.100000000000000 0.0083885357925 79.025356420457 0.9994288560933 -14.59513078154 0.9994288560933 -14.59513078154 0.0083887822214 79.020265506801
1.125000000000000 0.0085737429333 78.683673663055 0.9994166477448 -14.92690723875 0.9994166477448 -14.92690723875 0.0085740031842 78.678156596294
1.150000000000000 0.0087585930054 78.342457392275 0.9994044067661 -15.25868804042 0.9994044067661 -15.25868804042 0.0087588635162 78.336559489479
1.175000000000000 0.0089430780501 78.001677396949 0.9993921333089 -15.59047326366 0.9993921333089 -15.59047326366 0.0089433553909 77.995443241300
1.200000000000000 0.0091271901109 77.661306043261 0.9993798275364 -15.92226298528 0.9993798275364 -15.92226298528 0.0091274710032 77.654779393476
1.225000000000000 0.0093109212349 77.321318022247 0.9993674896253 -16.25405728191 0.9993674896253 -16.25405728191 0.0093112025701 77.314541730655
1.250000000000000 0.0094942634758 76.981690126326 0.9993551197670 -16.58585623005 0.9993551197670 -16.58585623005 0.0094945423308 76.974706065004
1.275000000000000 0.0096772088958 76.642401050893 0.9993427181688 -16.91765990620 0.9993427181688 -16.91765990620 0.0096774825473 76.635250045439
1.300000000000000 0.0098597495678 76.303431217604 0.9993302850547 -17.24946838694 0.9993302850547 -17.24946838694 0.0098600155050 76.296152988080
1.325000000000000 0.0100418775782 75.964762616563 0.9993178206664 -17.58128174902 0.9993178206664 -17.58128174902 0.0100421335130 75.957395725176
1.350000000000000 0.0102235850286 75.626378664914 0.9993053252638 -17.91310006950 0.9993053252638 -17.91310006950 0.0102238289052 75.618960470030
1.375000000000000 0.0104048640387 75.288264079862 0.9992927991252 -18.24492342582 0.9992927991252 -18.24492342582 0.0104050940408 75.280830696058
1.400000000000000 0.0105857067482 74.950404764312 0.9992802425481 -18.57675189588 0.9992802425481 -18.57675189588 0.0105859213050 74.942991028005
1.425000000000000 0.0107661053193 74.612787703655 0.9992676558485 -18.90858555819 0.9992676558485 -18.90858555819 0.0107663031099 74.605427144063
1.450000000000000 0.0109460519385 74.275400872332 0.9992550393614 -19.24042449191 0.9992550393614 -19.24042449191 0.0109462318955 74.268125687416
1.475000000000000 0.0111255388191 73.938233149163 0.9992423934402 -19.57226877698 0.9992423934402 -19.57226877698 0.0111257001303 73.931074186233
1.500000000000000 0.0113045582031 73.601274240338 0.9992297184566 -19.90411849418 0.9992297184566 -19.90411849418 0.0113047003119 73.594260981100
1.525000000000000 0.0114831023630 73.264514609374 0.9992170147996 -20.23597372522 0.9992170147996 -20.23597372522 0.0114832249683 73.257675159035
1.550000000000000 0.0116611636040 72.927945413195 0.9992042828754 -20.56783455283 0.9992042828754 -20.56783455283 0.0116612666582 72.921306493495
1.575000000000000 0.0118387342652 72.591558443727 0.9991915231063 -20.89970106082 0.9991915231063 -20.89970106082 0.0118388179721 72.585145389544
1.600000000000000 0.0120158067221 72.255346074496 0.9991787359301 -21.23157333415 0.9991787359301 -21.23157333415 0.0120158715325 72.249182833831
1.625000000000000 0.0121923733870 71.919301211701 0.9991659217987 -21.56345145898 0.9991659217987 -21.56345145898 0.0121924199950 71.913410348811
1.650000000000000 0.0123684267117 71.583417249301 0.9991530811774 -21.89533552275 0.9991530811774 -21.89533552275 0.0123684560488 71.577819950755
1.675000000000000 0.0125439591876 71.247688027807 0.9991402145440 -22.22722561421 0.9991402145440 -22.22722561421 0.0125439724169 71.242404111277
1.700000000000000 0.0127189633480 70.912107796426 0.9991273223868 -22.55912182346 0.9991273223868 -22.55912182346 0.0127189618571 70.907155721970
1.725000000000000 0.0128934317683 70.576671178197 0.9991144052046 -22.89102424199 0.9991144052046 -22.89102424199 0.0128934171619 70.572068061902
1.750000000000000 0.0130673570675 70.241373137959 0.9991014635042 -23.22293296275 0.9991014635042 -23.22293296275 0.0130673311591 70.237134767706
1.775000000000000 0.0132407319086 69.906208952827 0.9990884978000 -23.55484808008 0.9990884978000 -23.55484808008 0.0132406967123 69.902349806060
1.800000000000000 0.0134135490000 69.571174185014 0.9990755086122 -23.88676968984 0.9990755086122 -23.88676968984 0.0134135067206 69.567707448310
1.825000000000000 0.0135858010953 69.236264656785 0.9990624964658 -24.21869788934 0.9990624964658 -24.21869788934 0.0135857541191 69.233202247085
1.850000000000000 0.0137574809942 68.901476427438 0.9990494618888 -24.55063277736 0.9990494618888 -24.55063277736 0.0137574318789 68.898829014788
1.875000000000000 0.0139285815432 68.566805772007 0.9990364054115 -24.88257445418 0.9990364054115 -24.88257445418 0.0139285330072 68.564582803693
1.900000000000000 0.0140990956352 68.232249161760 0.9990233275646 -25.21452302155 0.9990233275646 -25.21452302155 0.0140990505470 68.230458887641
1.925000000000000 0.0142690162101 67.897803246182 0.9990102288783 -25.54647858267 0.9990102288783 -25.54647858267 0.0142689775773 67.896452745178
1.950000000000000 0.0144383362546 67.563464836431 0.9989971098805 -25.87844124219 0.9989971098805 -25.87844124219 0.0144383072128 67.562560043980
1.975000000000000 0.0146070488027 67.229230890133 0.9989839710964 -26.21041110618 0.9989839710964 -26.21041110618 0.0146070326036 67.228776626548
2.000000000000000 0.0147751469351 66.895098497155 0.9989708130462 -26.54238828210 0.9989708130466 -26.54238828211 0.0147751469351 66.895098496782
2.025000000000000 0.0149426237781 66.561064868084 0.9989576362457 -26.87437287876 0.9989576362457 -26.87437287876 0.0149426434271 66.561521808980
2.050000000000000 0.0151094725062 66.227127319920 0.9989444412022 -27.20636500630 0.9989444412022 -27.20636500630 0.0151095153345 66.228042854436
2.075000000000000 0.0152756863385 65.893283267931 0.9989312284166 -27.53836477614 0.9989312284166 -27.53836477614 0.0152757559458 65.894658053480
2.100000000000000 0.0154412585400 65.559530214546 0.9989179983805 -27.87037230094 0.9989179983805 -27.87037230094 0.0154413585833 65.561363944937
2.125000000000000 0.0156061824204 65.225865740710 0.9989047515758 -28.20238769451 0.9989047515758 -28.20238769451 0.0156063166021 65.228157177788
2.150000000000000 0.0157704513343 64.892287497740 0.9988914884738 -28.53441107185 0.9988914884738 -28.53441107185 0.0157706233901 64.895034503293
2.175000000000000 0.0159340586796 64.558793199973 0.9988782095342 -28.86644254899 0.9988782095342 -28.86644254899 0.0159342723668 64.561992767848
2.200000000000000 0.0160969978979 64.225380618086 0.9988649152045 -29.19848224301 0.9988649152045 -29.19848224301 0.0160972569833 64.229028906415
2.225000000000000 0.0162592624726 63.892047573097 0.9988516059193 -29.53053027194 0.9988516059193 -29.53053027194 0.0162595707212 63.896139936633
2.250000000000000 0.0164208459292 63.558791930953 0.9988382820995 -29.86258675472 0.9988382820995 -29.86258675472 0.0164212070924 63.563322953393
2.275000000000000 0.0165817418339 63.225611597699 0.9988249441518 -30.19465181112 0.9988249441518 -30.19465181112 0.0165821596381 63.230575123997
2.300000000000000 0.0167419437928 62.892504515156 0.9988115924683 -30.52672556168 0.9988115924683 -30.52672556168 0.0167424219281 62.897893683770
2.325000000000000 0.0169014454514 62.559468657114 0.9987982274261 -30.85880812765 0.9987982274261 -30.85880812765 0.0169019875606 62.565275932103
2.350000000000000 0.0170602404935 62.226502025926 0.9987848493867 -31.19089963093 0.9987848493867 -31.19089963093 0.0170608501609 62.232719228924
2.375000000000000 0.0172183226402 61.893602649609 0.9987714586960 -31.52300019398 0.9987714586960 -31.52300019398 0.0172190033811 61.900220991565
2.400000000000000 0.0173756856492 61.560768579244 0.9987580556839 -31.85510993977 0.9987580556839 -31.85510993977 0.0173764408996 61.567778691960
2.425000000000000 0.0175323233139 61.227997886790 0.9987446406642 -32.18722899172 0.9987446406642 -32.18722899172 0.0175331564198 61.235389854182
2.450000000000000 0.0176882294625 60.895288663208 0.9987312139347 -32.51935747360 0.9987312139347 -32.51935747360 0.0176891436701 60.903052052287
2.475000000000000 0.0178433979568 60.562639016914 0.9987177757768 -32.85149550951 0.9987177757768 -32.85149550951 0.0178443964030 60.570762908425
2.500000000000000 0.0179978226918 60.230047072473 0.9987043264558 -33.18364322377 0.9987043264558 -33.18364322377 0.0179989083945 60.238520091224
2.525000000000000 0.0181514975945 59.897510969601 0.9986908662211 -33.51580074088 0.9986908662211 -33.51580074088 0.0181526734434 59.906321314399
2.550000000000000 0.0183044166231 59.565028862363 0.9986773953062 -33.84796818545 0.9986773953062 -33.84796818545 0.0183056853708 59.574164335592
2.575000000000000 0.0184565737663 59.232598918608 0.9986639139289 -34.18014568214 0.9986639139289 -34.18014568214 0.0184579380196 59.242046955382
2.600000000000000 0.0186079630420 58.900219319597 0.9986504222917 -34.51233335560 0.9986504222917 -34.51233335560 0.0186094252541 58.909967016505
2.625000000000000 0.0187585784971 58.567888259810 0.9986369205821 -34.84453133038 0.9986369205821 -34.84453133038 0.0187601409591 58.577922403222
2.650000000000000 0.0189084142063 58.235603946900 0.9986234089729 -35.17673973094 0.9986234089729 -35.17673973094 0.0189100790398 58.245911040845
2.675000000000000 0.0190574642715 57.903364601826 0.9986098876229 -35.50895868152 0.9986098876229 -35.50895868152 0.0190592334212 57.913930895379
2.700000000000000 0.0192057228210 57.571168459073 0.9985963566769 -35.84118830611 0.9985963566769 -35.84118830611 0.0192075980477 57.581979973300
2.725000000000000 0.0193531840089 57.239013767039 0.9985828162667 -36.17342872845 0.9985828162667 -36.17342872845 0.0193551668830 57.250056321444
2.750000000000000 0.0194998420143 56.906898788466 0.9985692665114 -36.50568007188 0.9985692665114 -36.50568007188 0.0195019339093 56.918158026971
2.775000000000000 0.0196456910407 56.574821801019 0.9985557075182 -36.83794245938 0.9985557075182 -36.83794245938 0.0196478931275 56.586283217423
2.800000000000000 0.0197907253155 56.242781097902 0.9985421393825 -37.17021601348 0.9985421393825 -37.17021601348 0.0197930385565 56.254430060866
2.825000000000000 0.0199349390893 55.910774988565 0.9985285621894 -37.50250085625 0.9985285621894 -37.50250085625 0.0199373642334 55.922596766069
2.850000000000000 0.0200783266355 55.578801799466 0.9985149760138 -37.83479710920 0.9985149760138 -37.83479710920 0.0200808642132 55.590781582766
2.875000000000000 0.0202208822498 55.246859874872 0.9985013809211 -38.16710489331 0.9985013809211 -38.16710489331 0.0202235325684 55.258982801939
2.900000000000000 0.0203626002495 54.914947577710 0.9984877769683 -38.49942432896 0.9984877769683 -38.49942432896 0.0203653633894 54.927198756149
2.925000000000000 0.0205034749735 54.583063290457 0.9984741642044 -38.83175553588 0.9984741642044 -38.83175553588 0.0205063507841 54.595427819903
2.950000000000000 0.0206435007818 54.251205416031 0.9984605426716 -39.16409863317 0.9984605426716 -39.16409863317 0.0206464888779 54.263668410024
2.975000000000000 0.0207826720548 53.919372378723 0.9984469124057 -39.49645373923 0.9984469124057 -39.49645373923 0.0207857718141 53.931918986061
3.000000000000000 0.0209209831937 53.587562625137 0.9984332734369 -39.82882097174 0.9984332734369 -39.82882097174 0.0209241937535 53.600178050688
3.025000000000000 0.0210584286195 53.255774625123 0.9984196257909 -40.16120044766 0.9984196257909 -40.16120044766 0.0210617488749 53.268444150127
3.050000000000000 0.0211950027734 52.924006872729 0.9984059694899 -40.49359228318 0.9984059694899 -40.49359228318 0.0211984313750 52.936715874558
3.075000000000000 0.0213307001165 52.592257887127 0.9983923045525 -40.82599659374 0.9983923045525 -40.82599659374 0.0213342354689 52.604991858527
3.100000000000000 0.0214655151293 52.260526213563 0.9983786309958 -41.15841349397 0.9983786309958 -41.15841349397 0.0214691553900 52.273270781355
3.125000000000000 0.0215994423121 51.928810424256 0.9983649488353 -41.49084309771 0.9983649488353 -41.49084309771 0.0216031853904 51.941551367518
3.150000000000000 0.0217324761847 51.597109119312 0.9983512580860 -41.82328551798 0.9983512580860 -41.82328551798 0.0217363197415 51.609832387038
3.175000000000000 0.0218646112864 51.265420927601 0.9983375587634 -42.15574086701 0.9983375587634 -42.15574086701 0.0218685527340 51.278112655816
3.200000000000000 0.0219958421762 50.933744507620 0.9983238508843 -42.48820925616 0.9983238508843 -42.48820925616 0.0219998786783 50.946391035990
3.225000000000000 0.0221261634325 50.602078548333 0.9983101344674 -42.82069079602 0.9983101344674 -42.82069079602 0.0221302919052 50.614666436233
3.250000000000000 0.0222555696537 50.270421769974 0.9982964095345 -43.15318559630 0.9982964095345 -43.15318559630 0.0222597867661 50.282937812046
3.275000000000000 0.0223840554578 49.938772924838 0.9982826761107 -43.48569376593 0.9982826761107 -43.48569376593 0.0223883576339 49.951204166016
3.300000000000000 0.0225116154832 49.607130798020 0.9982689342259 -43.81821541298 0.9982689342259 -43.81821541298 0.0225159989028 49.619464548042
3.325000000000000 0.0226382443882 49.275494208150 0.9982551839152 -44.15075064473 0.9982551839152 -44.15075064473 0.0226427049895 49.287718055548
3.350000000000000 0.0227639368518 48.943862008061 0.9982414252197 -44.48329956765 0.9982414252197 -44.48329956765 0.0227684703337 48.955963833633
3.375000000000000 0.0228886875736 48.612233085456 0.9982276581873 -44.81586228740 0.9982276581873 -44.81586228740 0.0228932893985 48.624201075224
3.400000000000000 0.0230124912745 48.280606363528 0.9982138828735 -45.14843890885 0.9982138828735 -45.14843890885 0.0230171566710 48.292429021178
3.425000000000000 0.0231353426966 47.948980801524 0.9982000993420 -45.48102953612 0.9982000993420 -45.48102953612 0.0231400666634 47.960646960345
3.450000000000000 0.0232572366037 47.617355395325 0.9981863076655 -45.81363427255 0.9981863076655 -45.81363427255 0.0232620139132 47.628854229616
3.475000000000000 0.0233781677819 47.285729177924 0.9981725079264 -46.14625322074 0.9981725079264 -46.14625322074 0.0233829929843 47.297050213918
3.500000000000000 0.0234981310397 46.954101219928 0.9981587002174 -46.47888648257 0.9981587002174 -46.47888648257 0.0235029984674 46.965234346184
3.525000000000000 0.0236171212086 46.622470629989 0.9981448846421 -46.81153415923 0.9981448846421 -46.81153415923 0.0236220249810 46.633406107297
3.550000000000000 0.0237351331435 46.290836555206 0.9981310613158 -47.14419635121 0.9981310613158 -47.14419635121 0.0237400671723 46.301565025980
3.575000000000000 0.0238521617233 45.959198181508 0.9981172303660 -47.47687315834 0.9981172303660 -47.47687315834 0.0238571197176 45.969710678676
3.600000000000000 0.0239682018512 45.627554733976 0.9981033919329 -47.80956467984 0.9981033919329 -47.80956467984 0.0239731773234 45.637842689373
3.625000000000000 0.0240832484554 45.295905477160 0.9980895461700 -48.14227101428 0.9980895461700 -48.14227101428 0.0240882347273 45.305960729413
3.650000000000000 0.0241972964895 44.964249715326 0.9980756932450 -48.47499225968 0.9980756932450 -48.47499225968 0.0242022866986 44.974064517260
3.675000000000000 0.0243103409332 44.632586792718 0.9980618333394 -48.80772851350 0.9980618333394 -48.80772851350 0.0243153280393 44.642153818245
3.700000000000000 0.0244223767928 44.300916093737 0.9980479666501 -49.14047987265 0.9980479666501 -49.14047987265 0.0244273535850 44.310228444263
3.725000000000000 0.0245333991017 43.969237043132 0.9980340933890 -49.47324643357 0.9980340933890 -49.47324643357 0.0245383582058 43.978288253466
3.750000000000000 0.0246434029211 43.637549106130 0.9980202137839 -49.80602829221 0.9980202137839 -49.80602829221 0.0246483368071 43.646333149894
3.775000000000000 0.0247523833408 43.305851788549 0.9980063280785 -50.13882554410 0.9980063280785 -50.13882554410 0.0247572843305 43.314363083119
3.800000000000000 0.0248603354794 42.974144636890 0.9979924365334 -50.47163828435 0.9979924365334 -50.47163828435 0.0248651957547 42.982378047820
3.825000000000000 0.0249672544854 42.642427238382 0.9979785394258 -50.80446660771 0.9979785394258 -50.80446660771 0.0249720660967 42.650378083359
3.850000000000000 0.0250731355375 42.310699221018 0.9979646370503 -51.13731060859 0.9979646370503 -51.13731060859 0.0250778904123 42.318363273316
3.875000000000000 0.0251779738455 41.978960253559 0.9979507297188 -51.47017038109 0.9979507297188 -51.47017038109 0.0251826637973 41.986333745013
3.900000000000000 0.0252817646507 41.647210045507 0.9979368177611 -51.80304601904 0.9979368177611 -51.80304601904 0.0252863813884 41.654289669002
3.925000000000000 0.0253845032270 41.315448347069 0.9979229015253 -52.13593761603 0.9979229015253 -52.13593761603 0.0253890383639 41.322231258537
3.950000000000000 0.0254861848812 40.983674949085 0.9979089813773 -52.46884526546 0.9979089813773 -52.46884526546 0.0254906299450 40.990158769020
3.975000000000000 0.0255868049539 40.651889682938 0.9978950577019 -52.80176906054 0.9978950577019 -52.80176906054 0.0255911513964 40.658072497433
4.000000000000000 0.0256863588199 40.320092420459 0.9978811309024 -53.13470909439 0.9978811309024 -53.13470909439 0.0256905980275 40.325972781741
4.025000000000000 0.0257848418894 39.988283073780 0.9978672014008 -53.46766545998 0.9978672014008 -53.46766545998 0.0257889651930 39.993860000281
4.050000000000000 0.0258822496084 39.656461595208 0.9978532696382 -53.80063825027 0.9978532696382 -53.80063825027 0.0258862482943 39.661734571143
4.075000000000000 0.0259785774592 39.324627977048 0.9978393360747 -54.13362755817 0.9978393360747 -54.13362755817 0.0259824427799 39.329596951503
4.100000000000001 0.0260738209616 38.992782251436 0.9978254011895 -54.46663347660 0.9978254011895 -54.46663347660 0.0260775441467 38.997447636986
4.125000000000000 0.0261679756732 38.660924490139 0.9978114654810 -54.79965609855 0.9978114654810 -54.79965609855 0.0261715479406 38.665287160974
4.150000000000000 0.0262610371902 38.329054804354 0.9977975294669 -55.13269551706 0.9977975294669 -55.13269551706 0.0262644497578 38.333116093915
4.175000000000000 0.0263530011484 37.997173344484 0.9977835936839 -55.46575182533 0.9977835936839 -55.46575182533 0.0263562452452 38.000935042630
4.200000000000000 0.0264438632235 37.665280299914 0.9977696586881 -55.79882511668 0.9977696586881 -55.79882511668 0.0264469301018 37.668744649585
4.225000000000001 0.0265336191318 37.333375898764 0.9977557250548 -56.13191548465 0.9977557250548 -56.13191548465 0.0265365000791 37.336545592173
4.250000000000000 0.0266222646314 37.001460407636 0.9977417933784 -56.46502302297 0.9977417933784 -56.46502302297 0.0266249509824 37.004338581967
4.275000000000000 0.0267097955224 36.669534131362 0.9977278642721 -56.79814782567 0.9977278642721 -56.79814782567 0.0267122786714 36.672124363983
4.300000000000001 0.0267962076478 36.337597412731 0.9977139383685 -57.13128998705 0.9977139383685 -57.13128998705 0.0267984790612 36.339903715914
4.325000000000000 0.0268814968941 36.005650632216 0.9977000163187 -57.46444960174 0.9977000163187 -57.46444960174 0.0268835481227 36.007677447370
4.350000000000001 0.0269656591921 35.673694207698 0.9976860987927 -57.79762676475 0.9976860987927 -57.79762676475 0.0269674818843 35.675446399112
4.375000000000000 0.0270486905176 35.341728594170 0.9976721864788 -58.13082157148 0.9976721864788 -58.13082157148 0.0270502764318 35.343211442262
4.400000000000000 0.0271305868917 35.009754283461 0.9976582800840 -58.46403411776 0.9976582800840 -58.46403411776 0.0271319279097 35.010973477528
4.425000000000001 0.0272113443822 34.677771803935 0.9976443803332 -58.79726449986 0.9976443803332 -58.79726449986 0.0272124325221 34.678733434413
4.450000000000000 0.0272909591036 34.345781720198 0.9976304879694 -59.13051281459 0.9976304879694 -59.13051281459 0.0272917865330 34.346492270421
4.475000000000001 0.0273694272179 34.013784632800 0.9976166037534 -59.46377915926 0.9976166037534 -59.46377915926 0.0273699862675 34.014250970257
4.500000000000000 0.0274467449356 33.681781177943 0.9976027284634 -59.79706363173 0.9976027284634 -59.79706363173 0.0274470281123 33.682010545031
4.525000000000000 0.0275229085159 33.349772028321 0.9975888628943 -60.13036633048 0.9975888628939 -60.13036633047 0.0275229085159 33.349772028691
4.550000000000001 0.0275979108987 33.017770880105 0.9975750146424 -60.46368722897 0.9975750146424 -60.46368722897 0.0275976239217 33.017551512538
4.575000000000000 0.0276717452531 32.685791760776 0.9975611914995 -60.79702631574 0.9975611914995 -60.79702631574 0.0276711711715 32.685365149592
4.600000000000001 0.0277444082642 32.353835842526 0.9975473945632 -61.13038371310 0.9975473945632 -61.13038371310 0.0277435474133 32.353214087998
4.625000000000000 0.0278158966784 32.021904282702 0.9975336249174 -61.46375954439 0.9975336249174 -61.46375954439 0.0278147498580 32.021099435630
4.650000000000000 0.0278862073034 31.689998221408 0.9975198836321 -61.79715393404 0.9975198836321 -61.79715393404 0.0278847757792 31.689022261885
4.675000000000001 0.0279553370082 31.358118780278 0.9975061717621 -62.13056700747 0.9975061717621 -62.13056700747 0.0279536225127 31.356983596738
4.700000000000000 0.0280232827228 31.026267061250 0.9974924903458 -62.46399889108 0.9974924903458 -62.46399889108 0.0280212874555 31.024984429855
4.725000000000001 0.0280900414386 30.694444145351 0.9974788404044 -62.79744971221 0.9974788404044 -62.79744971221 0.0280877680649 30.693025709725
4.750000000000000 0.0281556102077 30.362651091502 0.9974652229404 -63.13091959916 0.9974652229404 -63.13091959916 0.0281530618578 30.361108342825
4.775000000000000 0.0282199861432 30.030888935326 0.9974516389370 -63.46440868106 0.9974516389370 -63.46440868106 0.0282171664101 30.029233192837
4.800000000000001 0.0282831664193 29.699158687972 0.9974380893568 -63.79791708792 0.9974380893568 -63.79791708792 0.0282800793552 29.697401079885
4.825000000000000 0.0283451482705 29.367461334937 0.9974245751408 -64.13144495055 0.9974245751408 -64.13144495055 0.0283417983836 29.365612779812
4.850000000000001 0.0284059289920 29.035797834914 0.9974110972072 -64.46499240054 0.9974110972072 -64.46499240054 0.0284023212419 29.033869023503
4.875000000000000 0.0284655059393 28.704169118632 0.9973976564509 -64.79855957020 0.9973976564509 -64.79855957020 0.0284616457316 28.702170496217
4.900000000000000 0.0285238765280 28.372576087720 0.9973842537418 -65.13214659254 0.9973842537418 -65.13214659254 0.0285197697083 28.370517836982
4.925000000000001 0.0285810382338 28.041019613559 0.9973708899245 -65.46575360119 0.9973708899245 -65.46575360119 0.0285766910807 28.038911638008
4.950000000000000 0.0286369885920 27.709500536158 0.9973575658168 -65.79938073043 0.9973575658168 -65.79938073043 0.0286324078093 27.707352444138
4.975000000000001 0.0286917251972 27.378019663030 0.9973442822090 -66.13302811506 0.9973442822090 -66.13302811506 0.0286869179059 27.375840752333
5.000000000000000 0.0287452457035 27.046577768067 0.9973310398629 -66.46669589041 0.9973310398629 -66.46669589041 0.0287402194318 27.044377011198
5.025000000000000 0.0287975478236 26.715175590433 0.9973178395110 -66.80038419227 0.9973178395110 -66.80038419227 0.0287923104975 26.712961620530
5.050000000000001 0.0288486293291 26.383813833447 0.9973046818553 -67.13409315685 0.9973046818553 -67.13409315685 0.0288431892609 26.381594930915
5.075000000000000 0.0288984880497 26.052493163490 0.9972915675670 -67.46782292070 0.9972915675670 -67.46782292070 0.0288928539264 26.050277243351
5.100000000000001 0.0289471218730 25.721214208889 0.9972784972847 -67.80157362073 0.9972784972847 -67.80157362073 0.0289413027441 25.719008808897
5.125000000000000 0.0289945287445 25.389977558829 0.9972654716146 -68.13534539408 0.9972654716146 -68.13534539408 0.0289885340079 25.387789828380