! Sonnet Data File
! From: em Version : 18.58
! From Project: Microstrip_ref
! Data is De-embedded 
! Data File Written: 05/20/2025 14:19:08
!< HDATE 12/30/2024 21:26:45
!< MDATE 12/30/2024 21:26:45
!< PARAMS
!< w = 240.0
!< END PARAMS
# GHZ S MA R 50.00000
0.100000000000000 1.7808071868e-4 -132.5734005694 0.9998825790121 -1.329892155227 0.9998825790121 -1.329892155234 1.7808071893e-4 -132.5734006013
0.125000000000000 2.1100531979e-4 -129.1516647116 0.9998715462443 -1.662363305974 0.9998715462443 -1.662363305974 2.1100534883e-4 -129.1517370537
0.150000000000000 2.4459056581e-4 -126.7508814698 0.9998605126372 -1.994835019000 0.9998605126372 -1.994835019000 2.4459059081e-4 -126.7509893047
0.175000000000000 2.7859834798e-4 -125.0127370449 0.9998494781791 -2.327307422407 0.9998494781791 -2.327307422407 2.7859835070e-4 -125.0128582253
0.200000000000000 3.1289170200e-4 -123.7258859606 0.9998384428583 -2.659780643707 0.9998384428583 -2.659780643707 3.1289167633e-4 -123.7260064695
0.225000000000000 3.4738689969e-4 -122.7589088573 0.9998274066611 -2.992254810209 0.9998274066611 -2.992254810209 3.4738684720e-4 -122.7590198690
0.250000000000000 3.8203014993e-4 -122.0262884972 0.9998163695718 -3.324730049022 0.9998163695718 -3.324730049022 3.8203007718e-4 -122.0263845894
0.275000000000000 4.1678545684e-4 -121.4701875057 0.9998053315727 -3.657206487052 0.9998053315727 -3.657206487052 4.1678537361e-4 -121.4702655526
0.300000000000000 4.5162790679e-4 -121.0501837146 0.9997942926451 -3.989684251007 0.9997942926451 -3.989684251007 4.5162782485e-4 -121.0502421747
0.325000000000000 4.8653976533e-4 -120.7372215522 0.9997832527688 -4.322163467401 0.9997832527688 -4.322163467401 4.8653969747e-4 -120.7372599970
0.350000000000000 5.2150810785e-4 -120.5099038217 0.9997722119226 -4.654644262555 0.9997722119226 -4.654644262555 5.2150806719e-4 -120.5099226153
0.375000000000000 5.5652332965e-4 -120.3521384714 0.9997611700901 -4.987126762572 0.9997611700902 -4.987126762578 5.5652332988e-4 -120.3521384777
0.400000000000000 5.9157816229e-4 -120.2515960485 0.9997501272333 -5.319611093500 0.9997501272333 -5.319611093500 5.9157821359e-4 -120.2515787325
0.425000000000000 6.2666704928e-4 -120.1986790441 0.9997390833452 -5.652097381020 0.9997390833452 -5.652097381020 6.2666716330e-4 -120.1986459546
0.450000000000000 6.6178567516e-4 -120.1858044370 0.9997280383980 -5.984585750772 0.9997280383980 -5.984585750772 6.6178586100e-4 -120.1857573789
0.475000000000000 6.9693066567e-4 -120.2069048032 0.9997169923688 -6.317076328198 0.9997169923688 -6.317076328198 6.9693093052e-4 -120.2068457006
0.500000000000000 7.3209936189e-4 -120.2570685918 0.9997059452352 -6.649569238584 0.9997059452352 -6.649569238584 7.3209971073e-4 -120.2569994330
0.525000000000000 7.6728965753e-4 -120.3322781806 0.9996948969750 -6.982064607064 0.9996948969750 -6.982064607064 7.6729009290e-4 -120.3322009735
0.550000000000000 8.0249987873e-4 -120.4292158989 0.9996838475665 -7.314562558631 0.9996838475665 -7.314562558631 8.0250040060e-4 -120.4291326355
0.575000000000000 8.3772869380e-4 -120.5451183451 0.9996727969884 -7.647063218141 0.9996727969884 -7.647063218141 8.3772929942e-4 -120.5450309731
0.600000000000000 8.7297504461e-4 -120.6776655604 0.9996617452203 -7.979566710320 0.9996617452203 -7.979566710320 8.7297572840e-4 -120.6775759599
0.625000000000000 9.0823809374e-4 -120.8248957219 0.9996506922422 -8.312073159775 0.9996506922422 -8.312073159775 9.0823884731e-4 -120.8248056859
0.650000000000000 9.4351718340e-4 -120.9851387629 0.9996396380352 -8.644582690995 0.9996396380352 -8.644582690995 9.4351799551e-4 -120.9850499831
0.675000000000000 9.7881180309e-4 -121.1569642075 0.9996285825810 -8.977095428363 0.9996285825810 -8.977095428363 9.7881265967e-4 -121.1568782614
0.700000000000000 0.0010141215639 -121.3391397936 0.9996175258624 -9.309611496161 0.9996175258624 -9.309611496161 0.0010141224481 -121.3390581356
0.725000000000000 0.0010494461779 -121.5305983724 0.9996064678630 -9.642131018578 0.9996064678630 -9.642131018578 0.0010494470704 -121.5305223264
0.750000000000000 0.0010847854416 -121.7304112186 0.9995954085673 -9.974654119713 0.9995954085673 -9.974654119713 0.0010847863205 -121.7303419730
0.775000000000000 0.0011201392223 -121.9377663481 0.9995843479608 -10.30718092358 0.9995843479608 -10.30718092358 0.0011201400633 -121.9377049529
0.800000000000000 0.0011555074471 -122.1519507836 0.9995732860300 -10.63971155414 0.9995732860300 -10.63971155414 0.0011555082239 -122.1518981484
0.825000000000000 0.0011908900934 -122.3723359533 0.9995622227622 -10.97224613524 0.9995622227622 -10.97224613524 0.0011908907779 -122.3722928469
0.850000000000000 0.0012262871818 -122.5983655968 0.9995511581457 -11.30478479071 0.9995511581457 -11.30478479071 0.0012262877442 -122.5983326490
0.875000000000000 0.0012616987691 -122.8295456904 0.9995400921698 -11.63732764429 0.9995400921698 -11.63732764429 0.0012616991782 -122.8295233935
0.900000000000000 0.0012971249435 -123.0654360088 0.9995290248245 -11.96987481967 0.9995290248245 -11.96987481967 0.0012971251671 -123.0654247217
0.925000000000000 0.0013325658219 -123.3056434719 0.9995179561095 -12.30242644090 0.9995179561096 -12.30242644089 0.0013325658220 -123.3056434614
0.950000000000000 0.0013680215344 -123.5498138898 0.9995068859900 -12.63498263037 0.9995068859900 -12.63498263037 0.0013680212876 -123.5498251852
0.975000000000000 0.0014034922448 -123.7976313515 0.9994958144849 -12.96754351282 0.9994958144849 -12.96754351282 0.0014034917127 -123.7976539765
1.000000000000000 0.0014389781239 -124.0488093756 0.9994847415785 -13.30010921138 0.9994847415785 -13.30010921138 0.0014389772731 -124.0488432039
1.025000000000000 0.0014744793589 -124.3030894246 0.9994736672645 -13.63267984950 0.9994736672645 -13.63267984950 0.0014744781566 -124.3031342246
1.050000000000000 0.0015099961490 -124.5602372457 0.9994625915371 -13.96525555063 0.9994625915371 -13.96525555063 0.0015099945633 -124.5602926880
1.075000000000000 0.0015455287033 -124.8200400989 0.9994515143913 -14.29783643816 0.9994515143913 -14.29783643816 0.0015455267037 -124.8201057639
1.100000000000000 0.0015810772397 -125.0823043566 0.9994404358224 -14.63042263546 0.9994404358224 -14.63042263546 0.0015810747969 -125.0823797429
1.125000000000000 0.0016166419829 -125.3468534165 0.9994293558258 -14.96301426587 0.9994293558258 -14.96301426587 0.0016166390697 -125.3469379489
1.150000000000000 0.0016522231636 -125.6135258820 0.9994182743977 -15.29561145267 0.9994182743977 -15.29561145267 0.0016522197548 -125.6136189200
1.175000000000000 0.0016878210172 -125.8821739702 0.9994071915344 -15.62821431915 0.9994071915344 -15.62821431915 0.0016878170901 -125.8822748170
1.200000000000000 0.0017234357829 -126.1526621164 0.9993961072321 -15.96082298854 0.9993961072321 -15.96082298854 0.0017234313173 -126.1527700269
1.225000000000000 0.0017590677028 -126.4248657454 0.9993850214876 -16.29343758404 0.9993850214876 -16.29343758404 0.0017590626818 -126.4249799350
1.250000000000000 0.0017947170214 -126.6986701887 0.9993739342975 -16.62605822884 0.9993739342975 -16.62605822884 0.0017947114310 -126.6987898419
1.275000000000000 0.0018303839845 -126.9739697268 0.9993628456584 -16.95868504606 0.9993628456584 -16.95868504606 0.0018303778142 -126.9740940050
1.300000000000000 0.0018660688391 -127.2506667399 0.9993517555670 -17.29131815881 0.9993517555670 -17.29131815881 0.0018660620820 -127.2507947902
1.325000000000000 0.0019017718324 -127.5286709544 0.9993406640198 -17.62395769016 0.9993406640198 -17.62395769016 0.0019017644853 -127.5288019169
1.350000000000000 0.0019374932118 -127.8078987707 0.9993295710131 -17.95660376313 0.9993295710131 -17.95660376313 0.0019374852754 -127.8080317864
1.375000000000000 0.0019732332241 -128.0882726639 0.9993184765431 -18.28925650071 0.9993184765431 -18.28925650071 0.0019732247032 -128.0884068818
1.400000000000000 0.0020089921154 -128.3697206483 0.9993073806058 -18.62191602584 0.9993073806058 -18.62191602584 0.0020089830187 -128.3698552326
1.425000000000000 0.0020447701305 -128.6521757969 0.9992962831966 -18.95458246142 0.9992962831966 -18.95458246142 0.0020447604711 -128.6523099332
1.450000000000000 0.0020805675129 -128.9355758102 0.9992851843109 -19.28725593028 0.9992851843109 -19.28725593028 0.0020805573080 -128.9357087120
1.475000000000000 0.0021163845045 -129.2198626286 0.9992740839435 -19.61993655523 0.9992740839435 -19.61993655523 0.0021163737754 -129.2199935430
1.500000000000000 0.0021522213449 -129.5049820832 0.9992629820888 -19.95262445901 0.9992629820888 -19.95262445901 0.0021522101173 -129.5051102958
1.525000000000000 0.0021880782720 -129.7908835799 0.9992518787408 -20.28531976428 0.9992518787408 -20.28531976428 0.0021880665756 -129.7910084203
1.550000000000000 0.0022239555210 -130.0775198151 0.9992407738930 -20.61802259369 0.9992407738930 -20.61802259369 0.0022239433897 -130.0776406606
1.575000000000000 0.0022598533249 -130.3648465165 0.9992296675383 -20.95073306977 0.9992296675383 -20.95073306977 0.0022598407964 -130.3649627968
1.600000000000000 0.0022957719137 -130.6528222102 0.9992185596693 -21.28345131501 0.9992185596693 -21.28345131501 0.0022957590299 -130.6529334102
1.625000000000000 0.0023317115150 -130.9414080069 0.9992074502777 -21.61617745183 0.9992074502777 -21.61617745183 0.0023316983212 -130.9415136699
1.650000000000000 0.0023676723531 -131.2305674089 0.9991963393548 -21.94891160257 0.9991963393548 -21.94891160257 0.0023676588984 -131.2306671393
1.675000000000000 0.0024036546494 -131.5202661341 0.9991852268914 -22.28165388948 0.9991852268914 -22.28165388948 0.0024036409863 -131.5203595992
1.700000000000000 0.0024396586223 -131.8104719549 0.9991741128775 -22.61440443474 0.9991741128775 -22.61440443474 0.0024396448064 -131.8105588864
1.725000000000000 0.0024756844868 -132.1011545512 0.9991629973027 -22.94716336044 0.9991629973027 -22.94716336044 0.0024756705766 -132.1012347468
1.750000000000000 0.0025117324545 -132.3922853765 0.9991518801559 -23.27993078858 0.9991518801559 -23.27993078858 0.0025117185116 -132.3923587001
1.775000000000000 0.0025478027338 -132.6838375348 0.9991407614253 -23.61270684106 0.9991407614253 -23.61270684106 0.0025477888219 -132.6839039170
1.800000000000000 0.0025838955295 -132.9757856676 0.9991296410987 -23.94549163970 0.9991296410987 -23.94549163970 0.0025838817146 -132.9758451055
1.825000000000000 0.0026200110427 -133.2681058505 0.9991185191630 -24.27828530620 0.9991185191630 -24.27828530620 0.0026199973930 -133.2681584071
1.850000000000000 0.0026561494712 -133.5607754982 0.9991073956048 -24.61108796216 0.9991073956048 -24.61108796216 0.0026561360564 -133.5608213017
1.875000000000000 0.0026923110087 -133.8537732766 0.9990962704099 -24.94389972908 0.9990962704099 -24.94389972908 0.0026922978999 -133.8538125189
1.900000000000000 0.0027284958455 -134.1470790225 0.9990851435637 -25.27672072835 0.9990851435637 -25.27672072835 0.0027284831148 -134.1471119577
1.925000000000000 0.0027647041679 -134.4406736691 0.9990740150509 -25.60955108123 0.9990740150509 -25.60955108123 0.0027646918883 -134.4407006114
1.950000000000000 0.0028009361583 -134.7345391771 0.9990628848558 -25.94239090888 0.9990628848558 -25.94239090888 0.0028009244032 -134.7345604989
1.975000000000000 0.0028371919952 -135.0286584716 0.9990517529619 -26.27524033233 0.9990517529619 -26.27524033233 0.0028371808382 -135.0286746007
2.000000000000000 0.0028734718533 -135.3230153833 0.9990406193525 -26.60809947248 0.9990406193525 -26.60809947248 0.0028734613677 -135.3230268002
2.025000000000000 0.0029097759028 -135.6175945937 0.9990294840103 -26.94096845013 0.9990294840103 -26.94096845013 0.0029097661616 -135.6176018288
2.050000000000000 0.0029461043103 -135.9123815855 0.9990183469174 -27.27384738592 0.9990183469174 -27.27384738592 0.0029460953855 -135.9123852157
2.075000000000000 0.0029824572379 -136.2073625950 0.9990072080558 -27.60673640037 0.9990072080558 -27.60673640037 0.0029824492006 -136.2073632404
2.100000000000000 0.0030188348435 -136.5025245692 0.9989960674067 -27.93963561388 0.9989960674067 -27.93963561388 0.0030188277634 -136.5025228897
2.125000000000000 0.0030552372808 -136.7978551252 0.9989849249511 -28.27254514668 0.9989849249511 -28.27254514668 0.0030552312258 -136.7978518167
2.150000000000000 0.0030916646992 -137.0933425125 0.9989737806698 -28.60546511890 0.9989737806698 -28.60546511890 0.0030916597352 -137.0933383031
2.175000000000000 0.0031281172435 -137.3889755783 0.9989626345429 -28.93839565049 0.9989626345429 -28.93839565049 0.0031281134344 -137.3889712244
2.200000000000000 0.0031645950543 -137.6847437343 0.9989514865506 -29.27133686128 0.9989514865506 -29.27133686128 0.0031645924612 -137.6847400170
2.225000000000000 0.0032010982674 -137.9806369269 0.9989403366724 -29.60428887096 0.9989403366724 -29.60428887096 0.0032010969488 -137.9806346475
2.250000000000000 0.0032376270097 -138.2766459716 0.9989291849004 -29.93725179988 0.9989291849004 -29.93725179987 0.0032376270096 -138.2766459784
2.275000000000000 0.0032741814212 -138.5727607094 0.9989180311766 -30.27022576491 0.9989180311766 -30.27022576491 0.0032741828146 -138.5727637716
2.300000000000000 0.0033107616104 -138.8689736165 0.9989068755172 -30.60321088781 0.9989068755172 -30.60321088781 0.0033107644347 -138.8689806031
2.325000000000000 0.0033473676990 -139.1652761459 0.9988957178889 -30.93620728680 0.9988957178889 -30.93620728680 0.0033473719992 -139.1652878998
2.350000000000000 0.0033839997991 -139.4616605236 0.9988845582704 -31.26921508080 0.9988845582704 -31.26921508080 0.0033840056165 -139.4616778879
2.375000000000000 0.0034206580180 -139.7581193638 0.9988733966405 -31.60223438859 0.9988733966405 -31.60223438859 0.0034206653899 -139.7581431783
2.400000000000000 0.0034573424580 -140.0546456503 0.9988622329778 -31.93526532877 0.9988622329778 -31.93526532877 0.0034573514175 -140.0546767472
2.425000000000000 0.0034940532164 -140.3512327179 0.9988510672609 -32.26830801979 0.9988510672609 -32.26830801979 0.0034940637921 -140.3512719184
2.450000000000000 0.0035307903850 -140.6478742356 0.9988398994685 -32.60136257994 0.9988398994685 -32.60136257994 0.0035308026013 -140.6479223460
2.475000000000000 0.0035675540507 -140.9445641904 0.9988287295791 -32.93442912734 0.9988287295791 -32.93442912734 0.0035675679274 -140.9446219987
2.500000000000000 0.0036043442948 -141.2412968724 0.9988175575715 -33.26750777997 0.9988175575715 -33.26750777997 0.0036043598472 -141.2413651449
2.525000000000000 0.0036411611936 -141.5380668602 0.9988063834244 -33.60059865563 0.9988063834244 -33.60059865563 0.0036411784321 -141.5381463381
2.550000000000000 0.0036780048173 -141.8348690077 0.9987952071166 -33.93370187196 0.9987952071166 -33.93370187196 0.0036780237479 -141.8349604041
2.575000000000000 0.0037148752312 -142.1316984314 0.9987840286272 -34.26681754643 0.9987840286272 -34.26681754643 0.0037148958548 -142.1318024281
2.600000000000000 0.0037517724945 -142.4285504981 0.9987728479353 -34.59994579636 0.9987728479353 -34.59994579636 0.0037517948073 -142.4286677429
2.625000000000000 0.0037886966609 -142.7254208139 0.9987616650200 -34.93308673889 0.9987616650200 -34.93308673889 0.0037887206545 -142.7255519180
2.650000000000000 0.0038256477781 -143.0223052131 0.9987504798611 -35.26624049101 0.9987504798611 -35.26624049101 0.0038256734392 -143.0224507485
2.675000000000000 0.0038626258881 -143.3191997484 0.9987392924380 -35.59940716951 0.9987392924380 -35.59940716951 0.0038626531987 -143.3193602454
2.700000000000000 0.0038996310268 -143.6161006806 0.9987281027309 -35.93258689106 0.9987281027309 -35.93258689106 0.0038996599643 -143.6162766261
2.725000000000000 0.0039366632242 -143.9130044701 0.9987169107199 -36.26577977212 0.9987169107199 -36.26577977212 0.0039366937613 -143.9131963053
2.750000000000000 0.0039737225039 -144.2099077678 0.9987057163854 -36.59898592900 0.9987057163854 -36.59898592900 0.0039737546088 -144.2101158865
2.775000000000000 0.0040108088835 -144.5068074071 0.9986945197082 -36.93220547786 0.9986945197082 -36.93220547786 0.0040108425201 -144.5070321540
2.800000000000000 0.0040479223742 -144.8037003957 0.9986833206694 -37.26543853465 0.9986833206694 -37.26543853465 0.0040479575019 -144.8039420652
2.825000000000000 0.0040850629808 -145.1005839082 0.9986721192503 -37.59868521519 0.9986721192503 -37.59868521519 0.0040850995550 -145.1008427431
2.850000000000000 0.0041222307016 -145.3974552792 0.9986609154328 -37.93194563510 0.9986609154328 -37.93194563510 0.0041222686736 -145.3977314697
2.875000000000000 0.0041594255283 -145.6943119964 0.9986497091988 -38.26521990986 0.9986497091988 -38.26521990986 0.0041594648456 -145.6946056791
2.900000000000000 0.0041966474462 -145.9911516940 0.9986385005308 -38.59850815476 0.9986385005308 -38.59850815476 0.0041966880523 -145.9914629515
2.925000000000000 0.0042338964336 -146.2879721468 0.9986272894116 -38.93181048492 0.9986272894116 -38.93181048492 0.0042339382688 -146.2883010068
2.950000000000000 0.0042711724621 -146.5847712639 0.9986160758244 -39.26512701530 0.9986160758244 -39.26512701530 0.0042712154630 -146.5851176996
2.975000000000000 0.0043084754964 -146.8815470836 0.9986048597528 -39.59845786069 0.9986048597528 -39.59845786069 0.0043085195966 -146.8819110129
3.000000000000000 0.0043458054941 -147.1782977677 0.9985936411807 -39.93180313570 0.9985936411807 -39.93180313570 0.0043458506244 -147.1786790535
3.025000000000000 0.0043831624060 -147.4750215964 0.9985824200925 -40.26516295478 0.9985824200925 -40.26516295478 0.0043832084941 -147.4754200470
3.050000000000000 0.0044205461754 -147.7717169634 0.9985711964730 -40.59853743220 0.9985711964730 -40.59853743220 0.0044205931469 -147.7721323327
3.075000000000000 0.0044579567389 -148.0683823716 0.9985599703073 -40.93192668207 0.9985599703073 -40.93192668207 0.0044580045167 -148.0688143595
3.100000000000000 0.0044953940253 -148.3650164278 0.9985487415812 -41.26533081832 0.9985487415812 -41.26533081832 0.0044954425304 -148.3654646813
3.125000000000000 0.0045328579562 -148.6616178392 0.9985375102805 -41.59874995472 0.9985375102805 -41.59874995472 0.0045329071078 -148.6620819530
3.150000000000000 0.0045703484460 -148.9581854090 0.9985262763918 -41.93218420485 0.9985262763918 -41.93218420485 0.0045703981616 -148.9586649263
3.175000000000000 0.0046078654011 -149.2547180322 0.9985150399020 -42.26563368213 0.9985150399020 -42.26563368213 0.0046079155970 -149.2552124462
3.200000000000000 0.0046454087207 -149.5512146922 0.9985038007982 -42.59909849982 0.9985038007982 -42.59909849982 0.0046454593120 -149.5517234472
3.225000000000000 0.0046829782963 -149.8476744571 0.9984925590683 -42.93257877099 0.9984925590683 -42.93257877099 0.0046830291972 -149.8481969498
3.250000000000000 0.0047205740113 -150.1440964759 0.9984813147003 -43.26607460854 0.9984813147003 -43.26607460854 0.0047206251356 -150.1446320572
3.275000000000000 0.0047581957417 -150.4404799758 0.9984700676829 -43.59958612522 0.9984700676829 -43.59958612522 0.0047582470027 -150.4410279519
3.300000000000000 0.0047958433553 -150.7368242583 0.9984588180048 -43.93311343358 0.9984588180048 -43.93311343358 0.0047958946664 -150.7373838929
3.325000000000000 0.0048335167123 -151.0331286965 0.9984475656555 -44.26665664601 0.9984475656555 -44.26665664601 0.0048335679868 -151.0336992124
3.350000000000000 0.0048712156645 -151.3293927322 0.9984363106248 -44.60021587472 0.9984363106248 -44.60021587472 0.0048712668163 -151.3299733132
3.375000000000000 0.0049089400558 -151.6256158729 0.9984250529028 -44.93379123176 0.9984250529028 -44.93379123176 0.0049089909994 -151.6262056659
3.400000000000000 0.0049466897219 -151.9217976893 0.9984137924800 -45.26738282899 0.9984137924800 -45.26738282899 0.0049467403728 -151.9223958062
3.425000000000000 0.0049844644904 -152.2179378121 0.9984025293473 -45.60099077812 0.9984025293473 -45.60099077812 0.0049845147651 -152.2185433322
3.450000000000000 0.0050222641805 -152.5140359304 0.9983912634960 -45.93461519065 0.9983912634960 -45.93461519065 0.0050223139969 -152.5146479022
3.475000000000000 0.0050600886031 -152.8100917884 0.9983799949179 -46.26825617795 0.9983799949179 -46.26825617795 0.0050601378807 -152.8107092323
3.500000000000000 0.0050979375606 -153.1061051838 0.9983687236049 -46.60191385116 0.9983687236049 -46.60191385116 0.0050979862210 -153.1067270942
3.525000000000000 0.0051358108470 -153.4020759649 0.9983574495493 -46.93558832130 0.9983574495493 -46.93558832130 0.0051358588136 -153.4027013124
3.550000000000000 0.0051737082480 -153.6980040289 0.9983461727438 -47.26927969917 0.9983461727438 -47.26927969917 0.0051737554465 -153.6986317631
3.575000000000000 0.0052116295404 -153.9938893197 0.9983348931816 -47.60298809542 0.9983348931816 -47.60298809542 0.0052116758991 -153.9945183712
3.600000000000000 0.0052495744925 -154.2897318259 0.9983236108559 -47.93671362050 0.9983236108559 -47.93671362050 0.0052496199423 -154.2903611090
3.625000000000000 0.0052875428640 -154.5855315788 0.9983123257604 -48.27045638471 0.9983123257604 -48.27045638471 0.0052875873387 -154.5861599939
3.650000000000000 0.0053255344058 -154.8812886509 0.9983010378889 -48.60421649815 0.9983010378889 -48.60421649815 0.0053255778422 -154.8819150869
3.675000000000000 0.0053635488600 -155.1770031534 0.9982897472359 -48.93799407074 0.9982897472359 -48.93799407074 0.0053635911982 -155.1776264904
3.700000000000000 0.0054015859599 -155.4726752354 0.9982784537956 -49.27178921224 0.9982784537956 -49.27178921224 0.0054016271433 -155.4732943469
3.725000000000000 0.0054396454300 -155.7683050814 0.9982671575629 -49.60560203219 0.9982671575629 -49.60560203219 0.0054396854056 -155.7689188370
3.750000000000000 0.0054777269856 -156.0638929105 0.9982558585329 -49.93943263999 0.9982558585329 -49.93943263999 0.0054777657042 -156.0645001781
3.775000000000000 0.0055158303334 -156.3594389741 0.9982445567006 -50.27328114484 0.9982445567006 -50.27328114484 0.0055158677495 -156.3600386228
3.800000000000000 0.0055539551708 -156.6549435550 0.9982332520617 -50.60714765574 0.9982332520617 -50.60714765574 0.0055539912429 -156.6555344572
3.825000000000000 0.0055921011864 -156.9504069659 0.9982219446117 -50.94103228154 0.9982219446117 -50.94103228154 0.0055921358769 -156.9509879995
3.850000000000000 0.0056302680594 -157.2458295477 0.9982106343465 -51.27493513086 0.9982106343465 -51.27493513086 0.0056303013352 -157.2463995991
3.875000000000000 0.0056684554602 -157.5412116685 0.9981993212621 -51.60885631218 0.9981993212621 -51.60885631218 0.0056684872922 -157.5417696344
3.900000000000000 0.0057066630498 -157.8365537223 0.9981880053548 -51.94279593376 0.9981880053548 -51.94279593376 0.0057066934133 -157.8370985121
3.925000000000000 0.0057448904800 -158.1318561277 0.9981766866210 -52.27675410368 0.9981766866210 -52.27675410368 0.0057449193547 -158.1323866659
3.950000000000000 0.0057831373934 -158.4271193266 0.9981653650572 -52.61073092983 0.9981653650572 -52.61073092983 0.0057831647636 -158.4276345551
3.975000000000000 0.0058214034234 -158.7223437835 0.9981540406599 -52.94472651990 0.9981540406599 -52.94472651990 0.0058214292778 -158.7228426633
4.000000000000000 0.0058596881941 -159.0175299839 0.9981427134260 -53.27874098142 0.9981427134260 -53.27874098142 0.0058597125257 -159.0180114977
4.025000000000000 0.0058979913200 -159.3126784335 0.9981313833524 -53.61277442169 0.9981313833524 -53.61277442169 0.0058980141268 -159.3131415875
4.050000000000000 0.0059363124064 -159.6077896574 0.9981200504360 -53.94682694783 0.9981200504360 -53.94682694783 0.0059363336908 -159.6082334832
4.075000000000000 0.0059746510493 -159.9028641985 0.9981087146739 -54.28089866676 0.9981087146739 -54.28089866676 0.0059746708183 -159.9032877554
4.100000000000001 0.0060130068351 -160.1979026175 0.9980973760632 -54.61498968520 0.9980973760632 -54.61498968520 0.0060130251002 -160.1983049936
4.125000000000000 0.0060513793409 -160.4929054909 0.9980860346010 -54.94910010969 0.9980860346010 -54.94910010969 0.0060513961180 -160.4932858057
4.150000000000000 0.0060897681340 -160.7878734111 0.9980746902846 -55.28323004655 0.9980746902846 -55.28323004655 0.0060897834438 -160.7882308168
4.175000000000000 0.0061281727725 -161.0828069849 0.9980633431112 -55.61737960189 0.9980633431112 -55.61737960189 0.0061281866401 -161.0831406681
4.200000000000000 0.0061665928049 -161.3777068331 0.9980519930780 -55.95154888166 0.9980519930780 -55.95154888166 0.0061666052597 -161.3780160162
4.225000000000001 0.0062050277701 -161.6725735896 0.9980406401825 -56.28573799155 0.9980406401825 -56.28573799155 0.0062050388457 -161.6728575325
4.250000000000000 0.0062434771974 -161.9674079005 0.9980292844218 -56.61994703708 0.9980292844218 -56.61994703708 0.0062434869319 -161.9676659019
4.275000000000000 0.0062819406064 -162.2622104236 0.9980179257932 -56.95417612355 0.9980179257932 -56.95417612355 0.0062819490420 -162.2624418223
4.300000000000001 0.0063204175073 -162.5569818276 0.9980065642939 -57.28842535606 0.9980065642939 -57.28842535606 0.0063204246901 -162.5571860038
4.325000000000000 0.0063589074005 -162.8517227914 0.9979951999212 -57.62269483950 0.9979951999212 -57.62269483950 0.0063589133808 -162.8518991678
4.350000000000001 0.0063974097769 -163.1464340037 0.9979838326722 -57.95698467852 0.9979838326722 -57.95698467852 0.0063974146085 -163.1465820464
4.375000000000000 0.0064359241174 -163.4411161620 0.9979724625440 -58.29129497759 0.9979724625440 -58.29129497759 0.0064359278580 -163.4412353819
4.400000000000000 0.0064744498936 -163.7357699723 0.9979610895337 -58.62562584095 0.9979610895337 -58.62562584095 0.0064744526045 -163.7358599255
4.425000000000001 0.0065129865671 -164.0303961485 0.9979497136382 -58.95997737263 0.9979497136382 -58.95997737263 0.0065129883128 -164.0304564374
4.450000000000000 0.0065515335900 -164.3249954117 0.9979383348545 -59.29434967642 0.9979383348545 -59.29434967642 0.0065515344383 -164.3250256856
4.475000000000001 0.0065900903905 -164.6195686795 0.9979269531868 -59.62874285654 0.9979269531872 -59.62874285652 0.0065900903905 -164.6195686779
4.500000000000000 0.0066286564430 -164.9141161169 0.9979155686094 -59.96315701449 0.9979155686094 -59.96315701449 0.0066286557120 -164.9140854997
4.525000000000000 0.0066672311283 -165.2086390330 0.9979041811413 -60.29759225526 0.9979041811413 -60.29759225526 0.0066672297211 -165.2085776364
4.550000000000001 0.0067058138735 -165.5031379834 0.9978927907716 -60.63204868115 0.9978927907716 -60.63204868115 0.0067058118689 -165.5030456499
4.575000000000000 0.0067444040816 -165.7976137182 0.9978813974967 -60.96652639485 0.9978813974967 -60.96652639485 0.0067444015610 -165.7974903395
4.600000000000001 0.0067830011460 -166.0920669918 0.9978700013127 -61.30102549880 0.9978700013127 -61.30102549880 0.0067829981929 -166.0919125091
4.625000000000000 0.0068216044505 -166.3864985630 0.9978586022159 -61.63554609524 0.9978586022159 -61.63554609524 0.0068216011500 -166.3863129668
4.650000000000000 0.0068602133687 -166.6809091937 0.9978472002023 -61.97008828616 0.9978472002023 -61.97008828616 0.0068602098078 -166.6806925244
4.675000000000001 0.0068988272646 -166.9752996494 0.9978357952677 -62.30465217330 0.9978357952677 -62.30465217330 0.0068988235317 -166.9750519966
4.700000000000000 0.0069374454925 -167.2696706984 0.9978243874078 -62.63923785820 0.9978243874078 -62.63923785820 0.0069374416771 -167.2693922012
4.725000000000001 0.0069760673966 -167.5640231114 0.9978129766182 -62.97384544213 0.9978129766182 -62.97384544213 0.0069760635893 -167.5637139580
4.750000000000000 0.0070146923114 -167.8583576613 0.9978015628943 -63.30847502613 0.9978015628943 -63.30847502613 0.0070146886035 -167.8580180888
4.775000000000000 0.0070533195616 -168.1526751230 0.9977901462314 -63.64312671101 0.9977901462314 -63.64312671101 0.0070533160449 -168.1523054167
4.800000000000001 0.0070919484620 -168.4469762728 0.9977787266247 -63.97780059732 0.9977787266247 -63.97780059732 0.0070919452286 -168.4465767662
4.825000000000000 0.0071305783177 -168.7412618882 0.9977673040690 -64.31249678536 0.9977673040690 -64.31249678536 0.0071305754596 -168.7408329621
4.850000000000001 0.0071692084237 -169.0355327477 0.9977558785592 -64.64721537519 0.9977558785592 -64.64721537519 0.0071692060327 -169.0350748300
4.875000000000000 0.0072078380654 -169.3297896304 0.9977444500900 -64.98195646663 0.9977444500900 -64.98195646663 0.0072078362327 -169.3293031950
4.900000000000000 0.0072464665183 -169.6240333160 0.9977330186557 -65.31672015924 0.9977330186557 -65.31672015924 0.0072464653344 -169.6235188822
4.925000000000001 0.0072850930478 -169.9182645842 0.9977215842508 -65.65150655232 0.9977215842508 -65.65150655232 0.0072850926022 -169.9177227159
4.950000000000000 0.0073237169100 -170.2124842147 0.9977101468694 -65.98631574491 0.9977101468694 -65.98631574491 0.0073237172908 -170.2119155194
4.975000000000001 0.0073623373505 -170.5066929866 0.9976987065055 -66.32114783581 0.9976987065055 -66.32114783581 0.0073623386444 -170.5060981149
5.000000000000000 0.0074009536056 -170.8008916790 0.9976872631530 -66.65600292356 0.9976872631530 -66.65600292356 0.0074009558973 -170.8002713228
5.025000000000000 0.0074395649015 -171.0950810696 0.9976758168055 -66.99088110641 0.9976758168055 -66.99088110641 0.0074395682738 -171.0944359618
5.050000000000001 0.0074781704545 -171.3892619356 0.9976643674566 -67.32578248239 0.9976643674566 -67.32578248239 0.0074781749878 -171.3885928484
5.075000000000000 0.0075167694713 -171.6834350530 0.9976529150998 -67.66070714923 0.9976529150998 -67.66070714923 0.0075167752434 -171.6827427970
5.100000000000001 0.0075553611486 -171.9776011962 0.9976414597281 -67.99565520440 0.9976414597281 -67.99565520440 0.0075553682346 -171.9768866191
5.125000000000000 0.0075939446734 -172.2717611382 0.9976300013349 -68.33062674512 0.9976300013349 -68.33062674512 0.0075939531450 -172.2710251234