! Sonnet Data File
! From: em Version : 18.58
! From Project: Microstrip_ref
! Data is De-embedded 
! Data File Written: 05/20/2025 14:19:08
!< HDATE 12/30/2024 21:26:45
!< MDATE 12/30/2024 21:26:45
!< PARAMS
!< w = 250.0
!< END PARAMS
# GHZ S MA R 50.00000
0.100000000000000 5.8292884769e-4 -103.1965789859 0.9998799790396 -1.332175590872 0.9998799790396 -1.332175590861 5.8292884777e-4 -103.1965789922
0.125000000000000 7.2441670178e-4 -102.0890402272 0.9998686675817 -1.665247983756 0.9998686675817 -1.665247983756 7.2460949888e-4 -102.0947077128
0.150000000000000 8.6626249771e-4 -101.4505581965 0.9998573109904 -1.998317440929 0.9998573109904 -1.998317440929 8.6662044634e-4 -101.4603688870
0.175000000000000 0.0010083318547 -101.0840759900 0.9998459130885 -2.331384194593 0.9998459130885 -2.331384194593 0.0010088299290 -101.0968878591
0.200000000000000 0.0011505535757 -100.8893080063 0.9998344774758 -2.664448483578 0.9998344774758 -2.664448483578 0.0011511689327 -100.9042736318
0.225000000000000 0.0012928850085 -100.8098860894 0.9998230075358 -2.997510552760 0.9998230075358 -2.997510552760 0.0012935967327 -100.8263656678
0.250000000000000 0.0014352979146 -100.8117060771 0.9998115064338 -3.330570652250 0.9998115064338 -3.330570652250 0.0014360868521 -100.8292060145
0.275000000000000 0.0015777719659 -100.8729270262 0.9997999771171 -3.663629036580 0.9997999771171 -3.663629036580 0.0015786206036 -100.8910588468
0.300000000000000 0.0017202914668 -100.9789136779 0.9997884223155 -3.996685963904 0.9997884223155 -3.996685963904 0.0017211838373 -100.9973664610
0.325000000000000 0.0018628435834 -101.1194899755 0.9997768445428 -4.329741695218 0.9997768445428 -4.329741695218 0.0018637651822 -101.1380115283
0.350000000000000 0.0020054173308 -101.2873593233 0.9997652460993 -4.662796493593 0.9997652460993 -4.662796493593 0.0020063550417 -101.3057430248
0.375000000000000 0.0021480029672 -101.4771517961 0.9997536290748 -4.995850623429 0.9997536290748 -4.995850623429 0.0021489449933 -101.4952271835
0.400000000000000 0.0022905916190 -101.6848261252 0.9997419953528 -5.328904349747 0.9997419953528 -5.328904349747 0.0022915274161 -101.7024520017
0.425000000000000 0.0024331750411 -101.9072813974 0.9997303466148 -5.661957937484 0.9997303466148 -5.661957937484 0.0024340952529 -101.9243406740
0.450000000000000 0.0025757454598 -102.1420974339 0.9997186843461 -5.995011650847 0.9997186843461 -5.995011650847 0.0025766418558 -102.1584931876
0.475000000000000 0.0027182954687 -102.3873567160 0.9997070098413 -6.328065752675 0.9997070098413 -6.328065752675 0.0027191608822 -102.4030091173
0.500000000000000 0.0028608179577 -102.6415194715 0.9996953242111 -6.661120503847 0.9996953242111 -6.661120503847 0.0028616462260 -102.6563633466
0.525000000000000 0.0030033060655 -102.9033342905 0.9996836283894 -6.994176162730 0.9996836283894 -6.994176162730 0.0030040919700 -102.9173171518
0.550000000000000 0.0031457531455 -103.1717730165 0.9996719231406 -7.327232984651 0.9996719231406 -7.327232984651 0.0031464923545 -103.1848534472
0.575000000000000 0.0032881527440 -103.4459825586 0.9996602090680 -7.660291221421 0.9996602090680 -7.660291221421 0.0032888417551 -103.4581288670
0.600000000000000 0.0034304985835 -103.7252487075 0.9996484866213 -7.993351120891 0.9996484866213 -7.993351120891 0.0034311346683 -103.7364377909
0.625000000000000 0.0035727845524 -104.0089686073 0.9996367561061 -8.326412926552 0.9996367561061 -8.326412926552 0.0035733657021 -104.0191849810
0.650000000000000 0.0037150046974 -104.2966295606 0.9996250176923 -8.659476877173 0.9996250176923 -8.659476877173 0.0037155295696 -104.3058645183
0.675000000000000 0.0038571532181 -104.5877925295 0.9996132714228 -8.992543206480 0.9996132714228 -8.992543206480 0.0038576210855 -104.5960434104
0.700000000000000 0.0039992244637 -104.8820791629 0.9996015172235 -9.325612142882 0.9996015172235 -9.325612142882 0.0039996351638 -104.8893487048
0.725000000000000 0.0041412129303 -105.1791614992 0.9995897549117 -9.658683909228 0.9995897549117 -9.658683909228 0.0041415668169 -105.1854572650
0.750000000000000 0.0042831132590 -105.4787537235 0.9995779842059 -9.991758722606 0.9995779842059 -9.991758722606 0.0042834111549 -105.4840875869
0.775000000000000 0.0044249202342 -105.7806055139 0.9995662047348 -10.32483679419 0.9995662047348 -10.32483679419 0.0044251633864 -105.7849931975
0.800000000000000 0.0045666287825 -106.0844966325 0.9995544160465 -10.65791832911 0.9995544160465 -10.65791832911 0.0045668188178 -106.0879572888
0.825000000000000 0.0047082339708 -106.3902324943 0.9995426176178 -10.99100352636 0.9995426176178 -10.99100352636 0.0047083728542 -106.3927883250
0.850000000000000 0.0048497310052 -106.6976405152 0.9995308088629 -11.32409257879 0.9995308088629 -11.32409257879 0.0048498209989 -106.6993164237
0.875000000000000 0.0049911152287 -107.0065670816 0.9995189891420 -11.65718567301 0.9995189891420 -11.65718567301 0.0049911588542 -107.0073903546
0.900000000000000 0.0051323821219 -107.3168750231 0.9995071577687 -11.99028298936 0.9995071577687 -11.99028298936 0.0051323821221 -107.3168750200
0.925000000000000 0.0052735272896 -107.6284414833 0.9994953140248 -12.32338470257 0.9994953140248 -12.32338470257 0.0052734865943 -107.6276494399
0.950000000000000 0.0054145464801 -107.9411561423 0.9994834571550 -12.65649098050 0.9994834571550 -12.65649098050 0.0054144681713 -107.9396048126
0.975000000000000 0.0055554355603 -108.2549196835 0.9994715863877 -12.98960198561 0.9994715863877 -12.98960198561 0.0055553228410 -108.2526431831
1.000000000000000 0.0056961905238 -108.5696425054 0.9994597009356 -13.32271787438 0.9994597009356 -13.32271787438 0.0056960466872 -108.5666760810
1.025000000000000 0.0058368074848 -108.8852436102 0.9994478000041 -13.65583879763 0.9994478000041 -13.65583879763 0.0058366358860 -108.8816234430
1.050000000000000 0.0059772826750 -109.2016496497 0.9994358827977 -13.98896490065 0.9994358827977 -13.98896490065 0.0059770867034 -109.1974126725
1.075000000000000 0.0061176124391 -109.5187940992 0.9994239485263 -14.32209632342 0.9994239485263 -14.32209632342 0.0061173954930 -109.5139778278
1.100000000000000 0.0062577932306 -109.8366165408 0.9994119964108 -14.65523320081 0.9994119964108 -14.65523320081 0.0062575586933 -109.8312589173
1.125000000000000 0.0063978216078 -110.1550620391 0.9994000256884 -14.98837566277 0.9994000256884 -14.98837566277 0.0063975728250 -110.1492012861
1.150000000000000 0.0065376942286 -110.4740805932 0.9993880356177 -15.32152383461 0.9993880356177 -15.32152383461 0.0065374344874 -110.4677550793
1.175000000000000 0.0066774078462 -110.7936266569 0.9993760254831 -15.65467783719 0.9993760254831 -15.65467783719 0.0066771403557 -110.7868747714
1.200000000000000 0.0068169593041 -111.1136587134 0.9993639945989 -15.98783778722 0.9993639945989 -15.98783778722 0.0068166871770 -111.1065187510
1.225000000000000 0.0069563455308 -111.4341389001 0.9993519423127 -16.32100379746 0.9993519423127 -16.32100379746 0.0069560717669 -111.4266489533
1.250000000000000 0.0070955635349 -111.7550326746 0.9993398680094 -16.65417597706 0.9993398680094 -16.65417597706 0.0070952910056 -111.7472305348
1.275000000000000 0.0072346104002 -112.0763085164 0.9993277711133 -16.98735443173 0.9993277711133 -16.98735443173 0.0072343418344 -112.0682315820
1.300000000000000 0.0073734832800 -112.3979376604 0.9993156510909 -17.32053926408 0.9993156510909 -17.32053926408 0.0073732212513 -112.3896228527
1.325000000000000 0.0075121793924 -112.7198938577 0.9993035074529 -17.65373057388 0.9993035074529 -17.65373057388 0.0075119263075 -112.7113775428
1.350000000000000 0.0076506960149 -113.0421531593 0.9992913397562 -17.98692845827 0.9992913397562 -17.98692845827 0.0076504541033 -113.0334710766
1.375000000000000 0.0077890304793 -113.3646937219 0.9992791476049 -18.32013301209 0.9992791476049 -18.32013301209 0.0077888017839 -113.3558809185
1.400000000000000 0.0079271801668 -113.6874956313 0.9992669306516 -18.65334432809 0.9992669306516 -18.65334432809 0.0079269665360 -113.6785864016
1.425000000000000 0.0080651425028 -114.0105407414 0.9992546885980 -18.98656249723 0.9992546885980 -18.98656249723 0.0080649455834 -114.0015685728
1.450000000000000 0.0082029149521 -114.3338125293 0.9992424211953 -19.31978760885 0.9992424211953 -19.31978760885 0.0082027361834 -114.3248100516
1.475000000000000 0.0083404950143 -114.6572959610 0.9992301282442 -19.65301975102 0.9992301282442 -19.65301975102 0.0083403356230 -114.6482949018
1.500000000000000 0.0084778802191 -114.9809773701 0.9992178095953 -19.98625901067 0.9992178095953 -19.98625901067 0.0084777412156 -114.9720085136
1.525000000000000 0.0086150681216 -115.3048443457 0.9992054651477 -20.31950547386 0.9992054651477 -20.31950547386 0.0086149502969 -115.2959374963
1.550000000000000 0.0087520562983 -115.6288856300 0.9991930948495 -20.65275922602 0.9991930948495 -20.65275922602 0.0087519602218 -115.6200695799
1.575000000000000 0.0088888423429 -115.9530910240 0.9991806986959 -20.98602035208 0.9991806986959 -20.98602035208 0.0088887683612 -115.9443935238
1.600000000000000 0.0090254238621 -116.2774513001 0.9991682767288 -21.31928893675 0.9991682767288 -21.31928893675 0.0090253720987 -116.2688990341
1.625000000000000 0.0091617984719 -116.6019581222 0.9991558290356 -21.65256506463 0.9991558290356 -21.65256506463 0.0091617688277 -116.5935766862
1.650000000000000 0.0092979637941 -116.9266039716 0.9991433557472 -21.98584882045 0.9991433557472 -21.98584882045 0.0092979559486 -116.9184178542
1.675000000000000 0.0094339174528 -117.2513820784 0.9991308570371 -22.31914028917 0.9991308570371 -22.31914028917 0.0094339308661 -117.2434146455
1.700000000000000 0.0095696570713 -117.5762863581 0.9991183331194 -22.65243955617 0.9991183331194 -22.65243955617 0.0095696909866 -117.5685598401
1.725000000000000 0.0097051802690 -117.9013113528 0.9991057842470 -22.98574670738 0.9991057842470 -22.98574670738 0.0097052337160 -117.8938468348
1.750000000000000 0.0098404846583 -118.2264521770 0.9990932107100 -23.31906182939 0.9990932107100 -23.31906182939 0.0098405564576 -118.2192695914
1.775000000000000 0.0099755678427 -118.5517044672 0.9990806128336 -23.65238500962 0.9990806128336 -23.65238500962 0.0099756566099 -118.5448225886
1.800000000000000 0.0101104274137 -118.8770643350 0.9990679909759 -23.98571633636 0.9990679909759 -23.98571633636 0.0101105315649 -118.8705007780
1.825000000000000 0.0102450609488 -119.2025283237 0.9990553455261 -24.31905589889 0.9990553455261 -24.31905589889 0.0102451787067 -119.1962995426
1.850000000000000 0.0103794660097 -119.5280933685 0.9990426769024 -24.65240378759 0.9990426769024 -24.65240378759 0.0103795954093 -119.5222146591
1.875000000000000 0.0105136401403 -119.8537567587 0.9990299855497 -24.98576009398 0.9990299855497 -24.98576009398 0.0105137790363 -119.8482422626
1.900000000000000 0.0106475808650 -120.1795161036 0.9990172719377 -25.31912491082 0.9990172719377 -25.31912491082 0.0106477269387 -120.1743788138
1.925000000000000 0.0107812856874 -120.5053693004 0.9990045365587 -25.65249833210 0.9990045365587 -25.65249833210 0.0107814364547 -120.5006210691
1.950000000000000 0.0109147520888 -120.8313145045 0.9989917799252 -25.98588045317 0.9989917799252 -25.98588045317 0.0109149049085 -120.8269660526
1.975000000000000 0.0110479775276 -121.1573501023 0.9989790025683 -26.31927137072 0.9989790025683 -26.31927137072 0.0110481296094 -121.1534110307
2.000000000000000 0.0111809594376 -121.4834746854 0.9989662050353 -26.65267118280 0.9989662050353 -26.65267118280 0.0111811078517 -121.4799534876
2.025000000000000 0.0113136952281 -121.8096870278 0.9989533878879 -26.98607998891 0.9989533878879 -26.98607998891 0.0113138369139 -121.8065911043
2.050000000000000 0.0114461822824 -122.1359860641 0.9989405516998 -27.31949788990 0.9989405516998 -27.31949788990 0.0114463140586 -122.1333217378
2.075000000000000 0.0115784179581 -122.4623708692 0.9989276970555 -27.65292498810 0.9989276970555 -27.65292498810 0.0115785365320 -122.4601434027
2.100000000000000 0.0117103995864 -122.7888406406 0.9989148245475 -27.98636138720 0.9989148245475 -27.98636138720 0.0117105015641 -122.7870542543
2.125000000000000 0.0118421244717 -123.1153946814 0.9989019347754 -28.31980719233 0.9989019347754 -28.31980719233 0.0118422063690 -123.1140525729
2.150000000000000 0.0119735898921 -123.4420323845 0.9988890283434 -28.65326251001 0.9988890283434 -28.65326251001 0.0119736481441 -123.4411367496
2.175000000000000 0.0121047930989 -123.7687532189 0.9988761058591 -28.98672744812 0.9988761058591 -28.98672744812 0.0121048240714 -123.7683052730
2.200000000000000 0.0122357313214 -124.0955567180 0.9988631679325 -29.32020211560 0.9988631679323 -29.32020211562 0.0122357313217 -124.0955567183
2.225000000000000 0.0123664017449 -124.4224424618 0.9988502151711 -29.65368662386 0.9988502151711 -29.65368662386 0.0123663670321 -124.4228897321
2.250000000000000 0.0124968015558 -124.7494100776 0.9988372481846 -29.98718108386 0.9988372481846 -29.98718108386 0.0124967283527 -124.7503030316
2.275000000000000 0.0126269278970 -125.0764592192 0.9988242675779 -30.32068560897 0.9988242675779 -30.32068560897 0.0126268124009 -125.0777953865
2.300000000000000 0.0127567778913 -125.4035895638 0.9988112739522 -30.65420031345 0.9988112739522 -30.65420031345 0.0127566162851 -125.4053656154
2.325000000000000 0.0128863486368 -125.7308008026 0.9987982679038 -30.98772531274 0.9987982679038 -30.98772531274 0.0128861371004 -125.7330125783
2.350000000000000 0.0130156372084 -126.0580926342 0.9987852500224 -31.32126072339 0.9987852500224 -31.32126072339 0.0130153719297 -126.0607351693
2.375000000000000 0.0131446406578 -126.3854647580 0.9987722208904 -31.65480666300 0.9987722208904 -31.65480666300 0.0131443178444 -126.3885323117
2.400000000000000 0.0132733560148 -126.7129168686 0.9987591810819 -31.98836325018 0.9987591810819 -31.98836325018 0.0132729719046 -126.7164029523
2.425000000000000 0.0134017802877 -127.0404486507 0.9987461311616 -32.32193060452 0.9987461311616 -32.32193060452 0.0134013311606 -127.0443460571
2.450000000000000 0.0135299104645 -127.3680597752 0.9987330716842 -32.65550884650 0.9987330716842 -32.65550884650 0.0135293926530 -127.3723606076
2.475000000000000 0.0136577435138 -127.6957498947 0.9987200031937 -32.98909809743 0.9987200031937 -32.98909809743 0.0136571534142 -127.7004455970
2.500000000000000 0.0137852763853 -128.0235186410 0.9987069262225 -33.32269847945 0.9987069262225 -33.32269847945 0.0137846104684 -128.0286000274
2.525000000000000 0.0139125060113 -128.3513656217 0.9986938412909 -33.65631011542 0.9986938412909 -33.65631011542 0.0139117608333 -128.3568229072
2.550000000000000 0.0140394293075 -128.6792904180 0.9986807489067 -33.98993312887 0.9986807489067 -33.98993312887 0.0140386015203 -128.6851132494
2.575000000000000 0.0141660431740 -129.0072925828 0.9986676495645 -34.32356764398 0.9986676495645 -34.32356764398 0.0141651295357 -129.0134700692
2.600000000000000 0.0142923444960 -129.3353716392 0.9986545437456 -34.65721378547 0.9986545437456 -34.65721378547 0.0142913418812 -129.3418923830
2.625000000000000 0.0144183301456 -129.6635270791 0.9986414319175 -34.99087167859 0.9986414319175 -34.99087167859 0.0144172355550 -129.6703792071
2.650000000000000 0.0145439969819 -129.9917583626 0.9986283145335 -35.32454144904 0.9986283145335 -35.32454144904 0.0145428075524 -129.9989295569
2.675000000000000 0.0146693418528 -130.3200649167 0.9986151920328 -35.65822322294 0.9986151920328 -35.65822322294 0.0146680548669 -130.3275424463
2.700000000000000 0.0147943615957 -130.6484461357 0.9986020648401 -35.99191712674 0.9986020648401 -35.99191712674 0.0147929744907 -130.6562168873
2.725000000000000 0.0149190530384 -130.9769013807 0.9985889333658 -36.32562328720 0.9985889333658 -36.32562328720 0.0149175634153 -130.9849518897
2.750000000000000 0.0150434130004 -131.3054299794 0.9985757980053 -36.65934183131 0.9985757980053 -36.65934183131 0.0150418186329 -131.3137464613
2.775000000000000 0.0151674382938 -131.6340312270 0.9985626591398 -36.99307288628 0.9985626591398 -36.99307288628 0.0151657371363 -131.6425996077
2.800000000000000 0.0152911257243 -131.9627043863 0.9985495171357 -37.32681657946 0.9985495171357 -37.32681657946 0.0152893159203 -131.9715103331
2.825000000000000 0.0154144720922 -132.2914486879 0.9985363723452 -37.66057303830 0.9985363723452 -37.66057303830 0.0154125519818 -132.3004776401
2.850000000000000 0.0155374741934 -132.6202633317 0.9985232251058 -37.99434239030 0.9985232251058 -37.99434239030 0.0155354423209 -132.6295005305
2.875000000000000 0.0156601288204 -132.9491474874 0.9985100757411 -38.32812476298 0.9985100757411 -38.32812476298 0.0156579839413 -132.9585780058
2.900000000000000 0.0157824327628 -133.2781002950 0.9984969245604 -38.66192028383 0.9984969245604 -38.66192028383 0.0157801738506 -133.2877090681
2.925000000000000 0.0159043828091 -133.6071208668 0.9984837718595 -38.99572908029 0.9984837718595 -38.99572908029 0.0159020090615 -133.6168927204
2.950000000000000 0.0160259757467 -133.9362082874 0.9984706179203 -39.32955127965 0.9984706179203 -39.32955127965 0.0160234865919 -133.9461279675
2.975000000000000 0.0161472083633 -134.2653616160 0.9984574630115 -39.66338700909 0.9984574630115 -39.66338700909 0.0161446034652 -134.2754138171
3.000000000000000 0.0162680774476 -134.5945798867 0.9984443073889 -39.99723639560 0.9984443073889 -39.99723639560 0.0162653567112 -134.6047492801
3.025000000000000 0.0163885797902 -134.9238621103 0.9984311512955 -40.33109956595 0.9984311512955 -40.33109956595 0.0163857433665 -134.9341333719
3.050000000000000 0.0165087121843 -135.2532072755 0.9984179949618 -40.66497664669 0.9984179949618 -40.66497664669 0.0165057604745 -135.2635651130
3.075000000000000 0.0166284714264 -135.5826143502 0.9984048386063 -40.99886776406 0.9984048386063 -40.99886776406 0.0166254050860 -135.5930435300
3.100000000000000 0.0167478543173 -135.9120822829 0.9983916824361 -41.33277304403 0.9983916824361 -41.33277304403 0.0167446742598 -135.9225676563
3.125000000000000 0.0168668576627 -136.2416100040 0.9983785266465 -41.66669261223 0.9983785266465 -41.66669261223 0.0168635650624 -136.2521365330
3.150000000000000 0.0169854782738 -136.5711964272 0.9983653714221 -42.00062659394 0.9983653714221 -42.00062659394 0.0169820745690 -136.5817492098
3.175000000000000 0.0171037129683 -136.9008404511 0.9983522169371 -42.33457511406 0.9983522169371 -42.33457511406 0.0171001998630 -136.9114047456
3.200000000000000 0.0172215585704 -137.2305409602 0.9983390633553 -42.66853829711 0.9983390633553 -42.66853829711 0.0172179380370 -137.2411022095
3.225000000000000 0.0173390119124 -137.5602968265 0.9983259108308 -43.00251626718 0.9983259108308 -43.00251626718 0.0173352861921 -137.5708406815
3.250000000000000 0.0174560698344 -137.8901069105 0.9983127595084 -43.33650914793 0.9983127595084 -43.33650914793 0.0174522414390 -137.9006192532
3.275000000000000 0.0175727291853 -138.2199700633 0.9982996095239 -43.67051706258 0.9982996095239 -43.67051706258 0.0175688008974 -138.2304370282
3.300000000000000 0.0176889868233 -138.5498851269 0.9982864610045 -44.00454013389 0.9982864610045 -44.00454013389 0.0176849616965 -138.5602931232
3.325000000000000 0.0178048396165 -138.8798509362 0.9982733140694 -44.33857848413 0.9982733140694 -44.33857848413 0.0178007209748 -138.8901866684
3.350000000000000 0.0179202844432 -139.2098663200 0.9982601688299 -44.67263223509 0.9982601688299 -44.67263223509 0.0179160758807 -139.2201168080
3.375000000000000 0.0180353181924 -139.5399301023 0.9982470253902 -45.00670150807 0.9982470253902 -45.00670150807 0.0180310235717 -139.5500827006
3.400000000000000 0.0181499377646 -139.8700411031 0.9982338838473 -45.34078642385 0.9982338838473 -45.34078642385 0.0181455612152 -139.8800835201
3.425000000000000 0.0182641400719 -140.2001981403 0.9982207442918 -45.67488710270 0.9982207442918 -45.67488710270 0.0182596859882 -140.2101184557
3.450000000000000 0.0183779220384 -140.5304000300 0.9982076068081 -46.00900366439 0.9982076068081 -46.00900366439 0.0183733950769 -140.5401867126
3.475000000000000 0.0184912806007 -140.8606455882 0.9981944714749 -46.34313622812 0.9981944714749 -46.34313622812 0.0184866856775 -140.8702875118
3.500000000000000 0.0186042127085 -141.1909336315 0.9981813383654 -46.67728491261 0.9981813383654 -46.67728491261 0.0185995549952 -141.2004200913
3.525000000000000 0.0187167153243 -141.5212629784 0.9981682075477 -47.01144983602 0.9981682075477 -47.01144983602 0.0187120002448 -141.5305837054
3.550000000000000 0.0188287854245 -141.8516324498 0.9981550790855 -47.34563111597 0.9981550790855 -47.34563111597 0.0188240186503 -141.8607776255
3.575000000000000 0.0189404199992 -142.1820408704 0.9981419530378 -47.67982886957 0.9981419530378 -47.67982886957 0.0189356074448 -142.1910011400
3.600000000000000 0.0190516160528 -142.5124870695 0.9981288294599 -48.01404321336 0.9981288294599 -48.01404321336 0.0190467638706 -142.5212535546
3.625000000000000 0.0191623706038 -142.8429698816 0.9981157084033 -48.34827426338 0.9981157084033 -48.34827426338 0.0191574851788 -142.8515341920
3.650000000000000 0.0192726806858 -143.1734881475 0.9981025899163 -48.68252213511 0.9981025899163 -48.68252213511 0.0192677686290 -143.1818423925
3.675000000000000 0.0193825433472 -143.5040407151 0.9980894740439 -49.01678694351 0.9980894740439 -49.01678694351 0.0193776114897 -143.5121775134
3.700000000000000 0.0194919556513 -143.8346264398 0.9980763608285 -49.35106880302 0.9980763608285 -49.35106880302 0.0194870110377 -143.8425389294
3.725000000000000 0.0196009146772 -144.1652441857 0.9980632503103 -49.68536782754 0.9980632503103 -49.68536782754 0.0195959645579 -144.1729260320
3.750000000000000 0.0197094175192 -144.4958928258 0.9980501425268 -50.01968413047 0.9980501425268 -50.01968413047 0.0197044693434 -144.5033382300
3.775000000000000 0.0198174612878 -144.8265712431 0.9980370375142 -50.35401782467 0.9980370375142 -50.35401782467 0.0198125226951 -144.8337749489
3.800000000000000 0.0199250431090 -145.1572783309 0.9980239353065 -50.68836902251 0.9980239353065 -50.68836902251 0.0199201219213 -145.1642356307
3.825000000000000 0.0200321601252 -145.4880129933 0.9980108359366 -51.02273783585 0.9980108359366 -51.02273783585 0.0200272643381 -145.4947197338
3.850000000000000 0.0201388094949 -145.8187741463 0.9979977394362 -51.35712437606 0.9979977394362 -51.35712437606 0.0201339472685 -145.8252267326
3.875000000000000 0.0202449883931 -146.1495607175 0.9979846458359 -51.69152875401 0.9979846458359 -51.69152875401 0.0202401680427 -146.1557561176
3.900000000000000 0.0203506940113 -146.4803716473 0.9979715551657 -52.02595108010 0.9979715551657 -52.02595108010 0.0203459239976 -146.4863073942
3.925000000000000 0.0204559235576 -146.8112058889 0.9979584674549 -52.36039146424 0.9979584674549 -52.36039146424 0.0204512124764 -146.8168800833
3.950000000000000 0.0205606742568 -147.1420624091 0.9979453827325 -52.69485001589 0.9979453827325 -52.69485001589 0.0205560308291 -147.1474737203
3.975000000000000 0.0206649433506 -147.4729401882 0.9979323010272 -53.02932684405 0.9979323010272 -53.02932684405 0.0206603764114 -147.4780878548
4.000000000000000 0.0207687280977 -147.8038382210 0.9979192223679 -53.36382205724 0.9979192223679 -53.36382205724 0.0207642465850 -147.8087220504
4.025000000000000 0.0208720257736 -148.1347555165 0.9979061467834 -53.69833576359 0.9979061467834 -53.69833576359 0.0208676387174 -148.1393758837
4.050000000000000 0.0209748336712 -148.4656910988 0.9978930743027 -54.03286807075 0.9978930743027 -54.03286807075 0.0209705501812 -148.4700489446
4.075000000000000 0.0210771491003 -148.7966440071 0.9978800049554 -54.36741908597 0.9978800049554 -54.36741908597 0.0210729783545 -148.8007408348
4.100000000000001 0.0211789693881 -149.1276132958 0.9978669387715 -54.70198891609 0.9978669387715 -54.70198891609 0.0211749206203 -149.1314511683
4.125000000000000 0.0212802918788 -149.4585980352 0.9978538757816 -55.03657766752 0.9978538757816 -55.03657766752 0.0212763743663 -149.4621795701
4.150000000000000 0.0213811139342 -149.7895973116 0.9978408160169 -55.37118544630 0.9978408160169 -55.37118544630 0.0213773369848 -149.7929256758
4.175000000000000 0.0214814329333 -150.1206102273 0.9978277595095 -55.70581235807 0.9978277595095 -55.70581235807 0.0214778058724 -150.1236891313
4.200000000000000 0.0215812462725 -150.4516359009 0.9978147062926 -56.04045850809 0.9978147062926 -56.04045850809 0.0215777784299 -150.4544695919
4.225000000000001 0.0216805513657 -150.7826734676 0.9978016563999 -56.37512400126 0.9978016563999 -56.37512400126 0.0216772520620 -150.7852667218
4.250000000000000 0.0217793456441 -151.1137220794 0.9977886098665 -56.70980894211 0.9977886098665 -56.70980894211 0.0217762241771 -151.1160801934
4.275000000000000 0.0218776265566 -151.4447809049 0.9977755667284 -57.04451343483 0.9977755667284 -57.04451343483 0.0218746921873 -151.4469096870
4.300000000000001 0.0219753915694 -151.7758491300 0.9977625270227 -57.37923758326 0.9977625270227 -57.37923758326 0.0219726535079 -151.7777548895
4.325000000000000 0.0220726381662 -152.1069259574 0.9977494907876 -57.71398149092 0.9977494907876 -57.71398149092 0.0220701055575 -152.1086154945
4.350000000000001 0.0221693638483 -152.4380106073 0.9977364580627 -58.04874526099 0.9977364580627 -58.04874526099 0.0221670457577 -152.4394912009
4.375000000000000 0.0222655661344 -152.7691023170 0.9977234288886 -58.38352899635 0.9977234288886 -58.38352899635 0.0222634715330 -152.7703817129
4.400000000000000 0.0223612425609 -153.1002003413 0.9977104033070 -58.71833279957 0.9977104033070 -58.71833279957 0.0223593803105 -153.1012867389
4.425000000000001 0.0224563906816 -153.4313039526 0.9976973813612 -59.05315677292 0.9976973813612 -59.05315677292 0.0224547695200 -153.4322059910
4.450000000000000 0.0225510080678 -153.7624124407 0.9976843630953 -59.38800101837 0.9976843630953 -59.38800101837 0.0225496365936 -153.7631391841
4.475000000000001 0.0226450923084 -154.0935251130 0.9976713485549 -59.72286563764 0.9976713485549 -59.72286563764 0.0226439789658 -154.0940860355
4.500000000000000 0.0227386410097 -154.4246412947 0.9976583377867 -60.05775073215 0.9976583377867 -60.05775073215 0.0227377940731 -154.4250462640
4.525000000000000 0.0228316517956 -154.7557603286 0.9976453308384 -60.39265640307 0.9976453308384 -60.39265640307 0.0228310793544 -154.7560195894
4.550000000000001 0.0229241223074 -155.0868815753 0.9976323277591 -60.72758275129 0.9976323277591 -60.72758275129 0.0229238322500 -155.0870057315
4.575000000000000 0.0230160502100 -155.4180044120 0.9976193285983 -61.06252987707 0.9976193285997 -61.06252987708 0.0230160502100 -155.4180044118
4.600000000000001 0.0231074356051 -155.7491223580 0.9976063316871 -61.39749784577 0.9976063316871 -61.39749784577 0.0231077291502 -155.7490110503
4.625000000000000 0.0231982787593 -156.0802291233 0.9975933353397 -61.73248671888 0.9975933353397 -61.73248671888 0.0231988649772 -156.0800208950
4.650000000000000 0.0232885775390 -156.4113244251 0.9975803395938 -62.06749659518 0.9975803395938 -62.06749659518 0.0232894550535 -156.4110333916
4.675000000000001 0.0233783298253 -156.7424080157 0.9975673444932 -62.40252757292 0.9975673444932 -62.40252757292 0.0233794967579 -156.7420479963
4.700000000000000 0.0234675335081 -157.0734796840 0.9975543500889 -62.73757975023 0.9975543500889 -62.73757975023 0.0234689874781 -157.0730641743
4.725000000000001 0.0235561864848 -157.4045392546 0.9975413564387 -63.07265322516 0.9975413564387 -63.07265322516 0.0235579246111 -157.4040813999
4.750000000000000 0.0236442866602 -157.7355865872 0.9975283636078 -63.40774809565 0.9975283636078 -63.40774809565 0.0236463055636 -157.7350991566
4.775000000000000 0.0237318319458 -158.0666215762 0.9975153716682 -63.74286445962 0.9975153716682 -63.74286445962 0.0237341277519 -158.0661169382
4.800000000000001 0.0238188202586 -158.3976441503 0.9975023806996 -64.07800241490 0.9975023806996 -64.07800241490 0.0238213886024 -158.3971342484
4.825000000000000 0.0239052495214 -158.7286542717 0.9974893907887 -64.41316205929 0.9974893907887 -64.41316205929 0.0239080855518 -158.7281506016
4.850000000000001 0.0239911176613 -159.0596519355 0.9974764020294 -64.74834349057 0.9974764020294 -64.74834349057 0.0239942160471 -159.0591655234
4.875000000000000 0.0240764226096 -159.3906371692 0.9974634145233 -65.08354680650 0.9974634145233 -65.08354680650 0.0240797775464 -159.3901785507
4.900000000000000 0.0241611623009 -159.7216100322 0.9974504283790 -65.41877210483 0.9974504283790 -65.41877210483 0.0241647675187 -159.7211892325
4.925000000000001 0.0242453346724 -160.0525706147 0.9974374437129 -65.75401948334 0.9974374437129 -65.75401948334 0.0242491834441 -160.0521971302
4.950000000000000 0.0243289376634 -160.3835190376 0.9974244606485 -66.08928903982 0.9974244606485 -66.08928903982 0.0243330228146 -160.3832018180
4.975000000000001 0.0244119692148 -160.7144554513 0.9974114793168 -66.42458087209 0.9974114793168 -66.42458087209 0.0244162831336 -160.7142028837
5.000000000000000 0.0244944272679 -161.0453800355 0.9973984998564 -66.75989507803 0.9973984998564 -66.75989507803 0.0244989619168 -161.0451999289
5.025000000000000 0.0245763097643 -161.3762929980 0.9973855224132 -67.09523175556 0.9973855224132 -67.09523175556 0.0245810566920 -161.3761925698
5.050000000000001 0.0246576146448 -161.7071945743 0.9973725471406 -67.43059100270 0.9973725471406 -67.43059100270 0.0246625649998 -161.7071804378
5.075000000000000 0.0247383398492 -162.0380850266 0.9973595741995 -67.76597291753 0.9973595741995 -67.76597291753 0.0247434843933 -162.0381631796
5.100000000000001 0.0248184833151 -162.3689646434 0.9973466037581 -68.10137759822 0.9973466037581 -68.10137759822 0.0248238124390 -162.3691404586
5.125000000000000 0.0248980429778 -162.6998337383 0.9973336359923 -68.43680514305 0.9973336359923 -68.43680514305 0.0249035467162 -162.7001119549