! Sonnet Data File
! From: em Version : 18.58
! From Project: Microstrip_ref
! Data is De-embedded 
! Data File Written: 05/20/2025 14:19:08
!< HDATE 12/30/2024 21:26:45
!< MDATE 12/30/2024 21:26:45
!< PARAMS
!< w = 230.0
!< END PARAMS
# GHZ S MA R 50.00000
0.100000000000000 3.3380122376e-4 108.81355462474 0.9998849986820 -1.328054534869 0.9998849986819 -1.328054534881 3.3380122390e-4 108.81355456975
0.125000000000000 4.1135043164e-4 106.14966299711 0.9998742912990 -1.660061188359 0.9998742912990 -1.660061188359 4.1125022650e-4 106.16030103968
0.150000000000000 4.8933831425e-4 104.22573240119 0.9998635584994 -1.992069198337 0.9998635584994 -1.992069198337 4.8914906799e-4 104.24236983962
0.175000000000000 5.6756996367e-4 102.73898148477 0.9998528019731 -2.324078615935 0.9998528019731 -2.324078615935 5.6730379611e-4 102.75916989020
0.200000000000000 6.4594235730e-4 101.53146371995 0.9998420233504 -2.656089499871 0.9998420233504 -2.656089499871 6.4561129412e-4 101.55376549245
0.225000000000000 7.2439512188e-4 100.51297668745 0.9998312241880 -2.988101915320 0.9998312241880 -2.988101915320 7.2401066370e-4 100.53647678363
0.250000000000000 8.0288984870e-4 99.628345192912 0.9998204059670 -3.320115933440 0.9998204059670 -3.320115933440 8.0246278463e-4 99.652423827740
0.275000000000000 8.8140037441e-4 98.841954999299 0.9998095700898 -3.652131630925 0.9998095700898 -3.652131630925 8.8094070271e-4 98.866171689737
0.300000000000000 9.5990780291e-4 98.129802202698 0.9997987178790 -3.984149089536 0.9997987178790 -3.984149089536 9.5942470359e-4 98.153832116478
0.325000000000000 0.0010383977742 97.475123224933 0.9997878505758 -4.316168395655 0.9997878505758 -4.316168395655 0.0010378996088 97.498720073061
0.350000000000000 0.0011168588797 96.865857942260 0.9997769693397 -4.648189639833 0.9997769693397 -4.648189639833 0.0011163532063 96.888831218444
0.375000000000000 0.0011952816986 96.293108474610 0.9997660752480 -4.980212916359 0.9997660752480 -4.980212916359 0.0011947752953 96.315308869881
0.400000000000000 0.0012736581877 95.750166186282 0.9997551692965 -5.312238322831 0.9997551692965 -5.312238322831 0.0012731570820 95.771475873360
0.425000000000000 0.0013519812823 95.231876864565 0.9997442524005 -5.644265959750 0.9997442524005 -5.644265959750 0.0013514907831 95.252202797895
0.450000000000000 0.0014302446262 94.734214569699 0.9997333253955 -5.976295930120 0.9997333253955 -5.976295930120 0.0014297693585 94.753483715211
0.475000000000000 0.0015084423849 94.253988347405 0.9997223890396 -6.308328339070 0.9997223890396 -6.308328339070 0.0015079863251 94.272144186024
0.500000000000000 0.0015865691128 93.788635898587 0.9997114440151 -6.640363293492 0.9997114440151 -6.640363293492 0.0015861356247 93.805635791511
0.525000000000000 0.0016646196567 93.336075561860 0.9997004909315 -6.972400901702 0.9997004909315 -6.972400901702 0.0016642115281 93.351888714371
0.550000000000000 0.0017425890852 92.894598258493 0.9996895303276 -7.304441273116 0.9996895303276 -7.304441273116 0.0017422085642 92.909204108219
0.575000000000000 0.0018204726347 92.462787361944 0.9996785626752 -7.636484517951 0.9996785626752 -7.636484517951 0.0018201214653 92.476174274716
0.600000000000000 0.0018982656689 92.039458423727 0.9996675883822 -7.968530746946 0.9996675883822 -7.968530746946 0.0018979451268 92.051622616450
0.625000000000000 0.0019759636471 91.623613245861 0.9996566077960 -8.300580071105 0.9996566077960 -8.300580071105 0.0019756745749 91.634557880582
0.650000000000000 0.0020535621000 91.214404469368 0.9996456212075 -8.632632601469 0.9996456212075 -8.632632601469 0.0020533049409 91.224138878475
0.675000000000000 0.0021310566098 90.811107973507 0.9996346288548 -8.964688448898 0.9996346288548 -8.964688448898 0.0021308314416 90.819646987169
0.700000000000000 0.0022084427956 90.413101147255 0.9996236309273 -9.296747723893 0.9996236309273 -9.296747723893 0.0022082493629 90.420464502115
0.725000000000000 0.0022857163007 90.019845625026 0.9996126275695 -9.628810536424 0.9996126275695 -9.628810536424 0.0022855540469 90.026057438523
0.750000000000000 0.0023628727833 89.630873452040 0.9996016188857 -9.960876995794 0.9996016188857 -9.960876995794 0.0023627408813 89.635961750222
0.775000000000000 0.0024399079089 89.245775908595 0.9995906049435 -10.29294721052 0.9995906049435 -10.29294721052 0.0024398052906 89.249772199120
0.800000000000000 0.0025168173442 88.864194415503 0.9995795857786 -10.62502128823 0.9995795857786 -10.62502128823 0.0025167427294 88.867133298115
0.825000000000000 0.0025935967526 88.485813080861 0.9995685613982 -10.95709933558 0.9995685613982 -10.95709933558 0.0025935486768 88.487731890638
0.850000000000000 0.0026702417911 88.110352551985 0.9995575317857 -11.28918145825 0.9995575317857 -11.28918145825 0.0026702186317 88.111291030650
0.875000000000000 0.0027467481070 87.737564926096 0.9995464969050 -11.62126776065 0.9995464969052 -11.62126776067 0.0027467481071 87.737564931548
0.900000000000000 0.0028231113383 87.367229421804 0.9995354567003 -11.95335834679 0.9995354567003 -11.95335834679 0.0028231326384 87.366334592996
0.925000000000000 0.0028993271092 86.999148938896 0.9995244111084 -12.28545331866 0.9995244111084 -12.28545331866 0.0028993677596 86.997404513838
0.950000000000000 0.0029753910333 86.633146903463 0.9995133600537 -12.61755277780 0.9995133600537 -12.61755277780 0.0029754490234 86.630599421871
0.975000000000000 0.0030512987119 86.269064775858 0.9995023034556 -12.94965682458 0.9995023034556 -12.94965682458 0.0030513719893 86.265761864794
1.000000000000000 0.0031270457350 85.906759854979 0.9994912412311 -13.28176555840 0.9994912412311 -13.28176555840 0.0031271322260 85.902750016212
1.025000000000000 0.0032026276826 85.546103409978 0.9994801732978 -13.61387907773 0.9994801732978 -13.61387907773 0.0032027253104 85.541435821309
1.050000000000000 0.0032780401256 85.186979073651 0.9994690995766 -13.94599748018 0.9994690995766 -13.94599748018 0.0032781468283 85.181703402965
1.075000000000000 0.0033532786274 84.829281454825 0.9994580199945 -14.27812086261 0.9994580199945 -14.27812086261 0.0033533923751 84.823447686378
1.100000000000000 0.0034283387461 84.472914935118 0.9994469344865 -14.61024932116 0.9994469344865 -14.61024932116 0.0034284575559 84.466573206919
1.125000000000000 0.0035032160363 84.117792621514 0.9994358429981 -14.94238295141 0.9994358429981 -14.94238295141 0.0035033379873 84.110993073398
1.150000000000000 0.0035779060510 83.763835431053 0.9994247454873 -15.27452184846 0.9994247454873 -15.27452184846 0.0035780292981 83.756628062605
1.175000000000000 0.0036524043446 83.410971288083 0.9994136419258 -15.60666610702 0.9994136419258 -15.60666610702 0.0036525271304 83.403405826035
1.200000000000000 0.0037267064743 83.059134417792 0.9994025323009 -15.93881582154 0.9994025323009 -15.93881582154 0.0037268271415 83.051260192209
1.225000000000000 0.0038008080034 82.708264722407 0.9993914166164 -16.27097108633 0.9993914166164 -16.27097108633 0.0038009250050 82.700130551260
1.250000000000000 0.0038747045035 82.358307228471 0.9993802948938 -16.60313199567 0.9993802948938 -16.60313199567 0.0038748164124 82.349961310239
1.275000000000000 0.0039483915567 82.009211595780 0.9993691671729 -16.93529864392 0.9993691671729 -16.93529864392 0.0039484970749 82.000701409521
1.300000000000000 0.0040218647585 81.660931679663 0.9993580335123 -17.26747112566 0.9993580335123 -17.26747112566 0.0040219627246 81.652303892216
1.325000000000000 0.0040951197199 81.313425139722 0.9993468939898 -17.59964953579 0.9993468939898 -17.59964953579 0.0040952091165 81.304725519784
1.350000000000000 0.0041681520701 80.966653089187 0.9993357487026 -17.93183396965 0.9993357487026 -17.93183396965 0.0041682320295 80.957926427818
1.375000000000000 0.0042409574588 80.620579779954 0.9993245977671 -18.26402452313 0.9993245977671 -18.26402452313 0.0042410272687 80.611869817244
1.400000000000000 0.0043135315583 80.275172318764 0.9993134413187 -18.59622129279 0.9993134413187 -18.59622129279 0.0043135906660 80.266521676349
1.425000000000000 0.0043858700657 79.930400411073 0.9993022795113 -18.92842437595 0.9993022795113 -18.92842437595 0.0043859180822 79.921850530285
1.450000000000000 0.0044579687053 79.586236129367 0.9992911125168 -19.26063387078 0.9992911125168 -19.26063387078 0.0044580054079 79.577827214659
1.475000000000000 0.0045298232300 79.242653703126 0.9992799405246 -19.59284987644 0.9992799405246 -19.59284987644 0.0045298485648 79.234424670570
1.500000000000000 0.0046014294238 78.899629328087 0.9992687637400 -19.92507249310 0.9992687637400 -19.92507249310 0.0046014435071 78.891617758796
1.525000000000000 0.0046727831031 78.557140992775 0.9992575823841 -20.25730182209 0.9992575823841 -20.25730182209 0.0046727862221 78.549383090881
1.550000000000000 0.0047438801182 78.215168320484 0.9992463966919 -20.58953796593 0.9992463966919 -20.58953796593 0.0047438727314 78.207698875584
1.575000000000000 0.0048147163553 77.873692425138 0.9992352069118 -20.92178102840 0.9992352069118 -20.92178102840 0.0048146990919 77.866544778950
1.600000000000000 0.0048852877372 77.532695779571 0.9992240133036 -21.25403111462 0.9992240133036 -21.25403111462 0.0048852613960 77.525901796672
1.625000000000000 0.0049555902250 77.192162095293 0.9992128161377 -21.58628833110 0.9992128161377 -21.58628833110 0.0049555557724 77.185752137668
1.650000000000000 0.0050256198187 76.852076212199 0.9992016156933 -21.91855278577 0.9992016156933 -21.91855278577 0.0050255783869 76.846079117567
1.675000000000000 0.0050953725584 76.512423997802 0.9991904122570 -22.25082458802 0.9991904122570 -22.25082458802 0.0050953254422 76.506867061482
1.700000000000000 0.0051648445248 76.173192254803 0.9991792061213 -22.58310384875 0.9991792061213 -22.58310384875 0.0051647931782 76.168101214943
1.725000000000000 0.0052340318401 75.834368636397 0.9991679975831 -22.91539068036 0.9991679975831 -22.91539068036 0.0052339778726 75.829767662505
1.750000000000000 0.0053029306682 75.495941568589 0.9991567869420 -23.24768519681 0.9991567869420 -23.24768519681 0.0053028758404 75.491853253196
1.775000000000000 0.0053715372153 75.157900178966 0.9991455744987 -23.57998751357 0.9991455744987 -23.57998751357 0.0053714834337 75.154345532287
1.800000000000000 0.0054398477298 74.820234231457 0.9991343605535 -23.91229774766 0.9991343605535 -23.91229774766 0.0054397970418 74.817232678921
1.825000000000000 0.0055078585025 74.482934066390 0.9991231454046 -24.24461601764 0.9991231454046 -24.24461601764 0.0055078130908 74.480503448988
1.850000000000000 0.0055755658667 74.145990545734 0.9991119293466 -24.57694244357 0.9991119293466 -24.57694244357 0.0055755280429 74.144147122959
1.875000000000000 0.0056429661979 73.809395002802 0.9991007126692 -24.90927714703 0.9991007126692 -24.90927714703 0.0056429383960 73.808153458211
1.900000000000000 0.0057100559133 73.473139196340 0.9990894956553 -25.24162025104 0.9990894956553 -25.24162025104 0.0057100406831 73.472512645511
1.925000000000000 0.0057768314713 73.137215273256 0.9990782785806 -25.57397188005 0.9990782785804 -25.57397188006 0.0057768314715 73.137215275776
1.950000000000000 0.0058432893737 72.801615706161 0.9990670617081 -25.90633216001 0.9990670617081 -25.90633216001 0.0058433073627 72.802252271704
1.975000000000000 0.0059094261589 72.466333306627 0.9990558452948 -26.23870121807 0.9990558452948 -26.23870121807 0.0059094649895 72.467614919482
2.000000000000000 0.0059752384079 72.131361144998 0.9990446295826 -26.57107918276 0.9990446295826 -26.57107918276 0.0059753010176 72.133294774453
2.025000000000000 0.0060407227398 71.796692545580 0.9990334148006 -26.90346618386 0.9990334148006 -26.90346618386 0.0060408121430 71.799283666356
2.050000000000000 0.0061058758120 71.462321055487 0.9990222011636 -27.23586235234 0.9990222011636 -27.23586235234 0.0061059950914 71.465573668531
2.075000000000000 0.0061706943191 71.128240420854 0.9990109888710 -27.56826782029 0.9990109888710 -27.56826782029 0.0061708466171 71.132157075970
2.100000000000000 0.0062351749924 70.794444565358 0.9989997781055 -27.90068272086 0.9989997781055 -27.90068272086 0.0062353635018 70.799026385537
2.125000000000000 0.0062993145980 70.460927570832 0.9989885690324 -28.23310718819 0.9989885690324 -28.23310718819 0.0062995425534 70.466174278325
2.150000000000000 0.0063631099367 70.127683659968 0.9989773617989 -28.56554135735 0.9989773617989 -28.56554135735 0.0063633806050 70.133593603922
2.175000000000000 0.0064265578421 69.794707180728 0.9989661565328 -28.89798536426 0.9989661565328 -28.89798536426 0.0064268745134 69.801277366390
2.200000000000000 0.0064896551801 69.461992592627 0.9989549533428 -29.23043934559 0.9989549533428 -29.23043934559 0.0064900211580 69.469218711982
2.225000000000000 0.0065523988473 69.129534454414 0.9989437523167 -29.56290343873 0.9989437523167 -29.56290343873 0.0065528174396 69.137410918225
2.250000000000000 0.0066147857700 68.797327413405 0.9989325535220 -29.89537778166 0.9989325535220 -29.89537778166 0.0066152602790 68.805847384563
2.275000000000000 0.0066768129028 68.465366196023 0.9989213570049 -30.22786251290 0.9989213570049 -30.22786251290 0.0066773466158 68.474521624163
2.300000000000000 0.0067384772276 68.133645599655 0.9989101627900 -30.56035777143 0.9989101627900 -30.56035777143 0.0067390734072 68.143427256926
2.325000000000000 0.0067997757523 67.802160485649 0.9988989708804 -30.89286369657 0.9988989708804 -30.89286369657 0.0068004376269 67.812558003627
2.350000000000000 0.0068607055096 67.470905773393 0.9988877812569 -31.22538042796 0.9988877812569 -31.22538042796 0.0068614362635 67.481907680989
2.375000000000000 0.0069212635556 67.139876435302 0.9988765938788 -31.55790810542 0.9988765938788 -31.55790810542 0.0069220663197 67.151470197765
2.400000000000000 0.0069814469687 66.809067492806 0.9988654086831 -31.89044686893 0.9988654086831 -31.89044686893 0.0069823248111 66.821239551471
2.425000000000000 0.0070412528485 66.478474013052 0.9988542255851 -32.22299685847 0.9988542255851 -32.22299685847 0.0070422087647 66.491209826091
2.450000000000000 0.0071006783144 66.148091106441 0.9988430444781 -32.55555821401 0.9988430444781 -32.55555821401 0.0071017152182 66.161375190300
2.475000000000000 0.0071597205046 65.817913924772 0.9988318652342 -32.88813107541 0.9988318652342 -32.88813107541 0.0071608412188 65.831729896390
2.500000000000000 0.0072183765749 65.487937660094 0.9988206877040 -33.22071558234 0.9988206877040 -33.22071558234 0.0072195838222 65.502268279739
2.525000000000000 0.0072766436975 65.158157544029 0.9988095117175 -33.55331187420 0.9988095117175 -33.55331187420 0.0072779400916 65.172984758768
2.550000000000000 0.0073345190602 64.828568847685 0.9987983370840 -33.88592009006 0.9987983370840 -33.88592009006 0.0073359070968 64.843873835339
2.575000000000000 0.0073919998649 64.499166881955 0.9987871635932 -34.21854036856 0.9987871635932 -34.21854036856 0.0073934819133 64.514930095578
2.600000000000000 0.0074490833269 64.169946998296 0.9987759910150 -34.55117284791 0.9987759910150 -34.55117284791 0.0074506616215 64.186148211032
2.625000000000000 0.0075057666740 63.840904589808 0.9987648191008 -34.88381766573 0.9987648191008 -34.88381766573 0.0075074433059 63.857522940117
2.650000000000000 0.0075620471453 63.512035092675 0.9987536475838 -35.21647495907 0.9987536475838 -35.21647495907 0.0075638240544 63.529049129845
2.675000000000000 0.0076179219905 63.183333987890 0.9987424761797 -35.54914486429 0.9987424761797 -35.54914486429 0.0076198009578 63.200721717796
2.700000000000000 0.0076733884690 62.854796803205 0.9987313045876 -35.88182751704 0.9987313045876 -35.88182751704 0.0076753711088 62.872535734221
2.725000000000000 0.0077284438490 62.526419115304 0.9987201324906 -36.21452305218 0.9987201324906 -36.21452305218 0.0077305316019 62.544486304383
2.750000000000000 0.0077830854071 62.198196552178 0.9987089595568 -36.54723160375 0.9987089595568 -36.54723160375 0.0077852795328 62.216568650949
2.775000000000000 0.0078373104270 61.870124795629 0.9986977854401 -36.87995330488 0.9986977854401 -36.87995330488 0.0078396119976 61.888778096552
2.800000000000000 0.0078911161995 61.542199583918 0.9986866097809 -37.21268828780 0.9986866097809 -37.21268828780 0.0078935260931 61.561110066338
2.825000000000000 0.0079445000214 61.214416714490 0.9986754322074 -37.54543668374 0.9986754322074 -37.54543668374 0.0079470189160 61.233560090676
2.850000000000000 0.0079974591952 60.886772046808 0.9986642523364 -37.87819862294 0.9986642523364 -37.87819862294 0.0080000875627 60.906123807767
2.875000000000000 0.0080499910286 60.559261505242 0.9986530697741 -38.21097423458 0.9986530697741 -38.21097423458 0.0080527291294 60.578796966404
2.900000000000000 0.0081020928339 60.231881081965 0.9986418841171 -38.54376364673 0.9986418841171 -38.54376364673 0.0081049407118 60.251575428563
2.925000000000000 0.0081537619277 59.904626839910 0.9986306949538 -38.87656698638 0.9986306949538 -38.87656698638 0.0081567194049 59.924455172128
2.950000000000000 0.0082049956305 59.577494915700 0.9986195018650 -39.20938437936 0.9986195018650 -39.20938437936 0.0082080623033 59.597432293414
2.975000000000000 0.0082557912664 59.250481522593 0.9986083044250 -39.54221595030 0.9986083044250 -39.54221595030 0.0082589665010 59.270503009791
3.000000000000000 0.0083061461631 58.923582953405 0.9985971022028 -39.87506182268 0.9985971022028 -39.87506182268 0.0083094290917 58.943663662101
3.025000000000000 0.0083560576512 58.596795583346 0.9985858947630 -40.20792211875 0.9985858947630 -40.20792211875 0.0083594471687 58.616910717103
3.050000000000000 0.0084055230643 58.270115872907 0.9985746816670 -40.54079695952 0.9985746816670 -40.54079695952 0.0084090178254 58.290240769767
3.075000000000000 0.0084545397392 57.943540370580 0.9985634624738 -40.87368646476 0.9985634624738 -40.87368646476 0.0084581381555 57.963650545492
3.100000000000000 0.0085031050152 57.617065715619 0.9985522367412 -41.20659075301 0.9985522367412 -41.20659075301 0.0085068052532 57.637136902214
3.125000000000000 0.0085512162347 57.290688640661 0.9985410040269 -41.53950994152 0.9985410040269 -41.53950994152 0.0085550162137 57.310696832438
3.150000000000000 0.0085988707427 56.964405974287 0.9985297638895 -41.87244414630 0.9985297638895 -41.87244414630 0.0086027681334 56.984327465098
3.175000000000000 0.0086460658874 56.638214643511 0.9985185158894 -42.20539348207 0.9985185158894 -42.20539348207 0.0086500581107 56.658026067338
3.200000000000000 0.0086927990197 56.312111676182 0.9985072595898 -42.53835806231 0.9985072595898 -42.53835806231 0.0086968832463 56.331790046164
3.225000000000000 0.0087390674938 55.986094203281 0.9984959945580 -42.87133799920 0.9984959945580 -42.87133799920 0.0087432406437 56.005616949971
3.250000000000000 0.0087848686676 55.660159461131 0.9984847203659 -43.20433340370 0.9984847203659 -43.20433340370 0.0087891274100 55.679504469928
3.275000000000000 0.0088301999021 55.334304793506 0.9984734365917 -43.53734438550 0.9984734365917 -43.53734438550 0.0088345406563 55.353450441262
3.300000000000000 0.0088750585624 55.008527653651 0.9984621428199 -43.87037105304 0.9984621428199 -43.87037105304 0.0088794774985 55.027452844378
3.325000000000000 0.0089194420179 54.682825606211 0.9984508386430 -44.20341351357 0.9984508386430 -44.20341351357 0.0089239350581 54.701509805881
3.350000000000000 0.0089633476423 54.357196329006 0.9984395236622 -44.53647187308 0.9984395236622 -44.53647187308 0.0089679104626 54.375619599471
3.375000000000000 0.0090067728142 54.031637614781 0.9984281974881 -44.86954623640 0.9984281974881 -44.86954623640 0.0090114008466 54.049780646658
3.400000000000000 0.0090497149177 53.706147372808 0.9984168597419 -45.20263670718 0.9984168597419 -45.20263670718 0.0090544033526 53.723991517439
3.425000000000000 0.0090921713423 53.380723630364 0.9984055100559 -45.53574338789 0.9984055100559 -45.53574338789 0.0090969151315 53.398250930756
3.450000000000000 0.0091341394838 53.055364534215 0.9983941480745 -45.86886637988 0.9983941480745 -45.86886637988 0.0091389333438 53.072557754913
3.475000000000000 0.0091756167448 52.730068351860 0.9983827734552 -46.20200578340 0.9983827734552 -46.20200578340 0.0091804551604 52.746911007812
3.500000000000000 0.0092166005347 52.404833472777 0.9983713858688 -46.53516169761 0.9983713858688 -46.53516169761 0.0092214777633 52.421309857093
3.525000000000000 0.0092570882709 52.079658409573 0.9983599850009 -46.86833422061 0.9983599850009 -46.86833422061 0.0092619983468 52.095753620187
3.550000000000000 0.0092970773791 51.754541798973 0.9983485705520 -47.20152344946 0.9983485705520 -47.20152344946 0.0093020141183 51.770241764207
3.575000000000000 0.0093365652934 51.429482402790 0.9983371422384 -47.53472948026 0.9983371422384 -47.53472948026 0.0093415222991 51.444773905766
3.600000000000000 0.0093755494579 51.104479108774 0.9983256997930 -47.86795240811 0.9983256997930 -47.86795240811 0.0093805201259 51.119349810674
3.625000000000000 0.0094140273262 50.779530931391 0.9983142429659 -48.20119232719 0.9983142429659 -48.20119232719 0.0094190048511 50.793969393548
3.650000000000000 0.0094519963630 50.454637012511 0.9983027715246 -48.53444933077 0.9983027715246 -48.53444933077 0.0094569737443 50.468632717317
3.675000000000000 0.0094894540441 50.129796622025 0.9982912852552 -48.86772351129 0.9982912852552 -48.86772351129 0.0094944240931 50.143339992627
3.700000000000000 0.0095263978574 49.805009158375 0.9982797839625 -49.20101496031 0.9982797839625 -49.20101496031 0.0095313532043 49.818091577154
3.725000000000000 0.0095628253033 49.480274149041 0.9982682674708 -49.53432376865 0.9982682674708 -49.53432376865 0.0095677584046 49.492887974857
3.750000000000000 0.0095987338958 49.155591250930 0.9982567356241 -49.86765002635 0.9982567356241 -49.86765002635 0.0096036370421 49.167729835125
3.775000000000000 0.0096341211628 48.830960250722 0.9982451882868 -50.20099382273 0.9982451882868 -50.20099382273 0.0096389864869 48.842617951854
3.800000000000000 0.0096689846470 48.506381065127 0.9982336253440 -50.53435524645 0.9982336253440 -50.53435524645 0.0096738041322 48.517553262440
3.825000000000000 0.0097033219066 48.181853741134 0.9982220467020 -50.86773438553 0.9982220467020 -50.86773438553 0.0097080873959 48.192536846724
3.850000000000000 0.0097371305160 47.857378456152 0.9982104522885 -51.20113132737 0.9982104522885 -51.20113132737 0.0097418337208 47.867569925854
3.875000000000000 0.0097704080666 47.532955518150 0.9981988420533 -51.53454615886 0.9981988420533 -51.53454615886 0.0097750405763 47.542653861102
3.900000000000000 0.0098031521674 47.208585365709 0.9981872159680 -51.86797896634 0.9981872159680 -51.86797896634 0.0098077054591 47.217790152594
3.925000000000000 0.0098353604460 46.884268568053 0.9981755740270 -52.20142983569 0.9981755740270 -52.20142983569 0.0098398258944 46.892980438008
3.950000000000000 0.0098670305490 46.560005825061 0.9981639162471 -52.53489885235 0.9981639162471 -52.53489885235 0.0098713994369 46.568226491244
3.975000000000000 0.0098981601431 46.235797967185 0.9981522426683 -52.86838610138 0.9981522426683 -52.86838610138 0.0099024236719 46.243530220981
4.000000000000000 0.0099287469155 45.911645955409 0.9981405533535 -53.20189166749 0.9981405533535 -53.20189166749 0.0099328962161 45.918893669280
4.025000000000000 0.0099587885750 45.587550881124 0.9981288483892 -53.53541563508 0.9981288483892 -53.53541563508 0.0099628147189 45.594319010056
4.050000000000000 0.0099882828525 45.263513966015 0.9981171278850 -53.86895808830 0.9981171278850 -53.86895808830 0.0099921768632 45.269808547597
4.075000000000000 0.0100172275020 44.939536561891 0.9981053919742 -54.20251911105 0.9981053919742 -54.20251911105 0.0100209803665 44.945364714994
4.100000000000001 0.0100456203009 44.615620150538 0.9980936408139 -54.53609878708 0.9980936408139 -54.53609878708 0.0100492229819 44.620990072568
4.125000000000000 0.0100734590514 44.291766343532 0.9980818745847 -54.86969720000 0.9980818745847 -54.86969720000 0.0100769024992 44.296687306276
4.150000000000000 0.0101007415806 43.967976882049 0.9980700934912 -55.20331443329 0.9980700934912 -55.20331443329 0.0101040167454 43.972459226069
4.175000000000000 0.0101274657418 43.644253636667 0.9980582977615 -55.53695057043 0.9980582977615 -55.53695057043 0.0101305635864 43.648308764261
4.200000000000000 0.0101536294148 43.320598607167 0.9980464876477 -55.87060569484 0.9980464876477 -55.87060569484 0.0101565409273 43.324238973872
4.225000000000001 0.0101792305068 42.997013922327 0.9980346634256 -56.20427989000 0.9980346634256 -56.20427989000 0.0101819467135 43.000253026944
4.250000000000000 0.0102042669533 42.673501839725 0.9980228253946 -56.53797323943 0.9980228253946 -56.53797323943 0.0102067789319 42.676354212864
4.275000000000000 0.0102287367185 42.350064745547 0.9980109738777 -56.87168582679 0.9980109738777 -56.87168582679 0.0102310356115 42.352545936674
4.300000000000001 0.0102526377964 42.026705154399 0.9979991092216 -57.20541773587 0.9979991092216 -57.20541773587 0.0102547148243 42.028831717376
4.325000000000000 0.0102759682111 41.703425709123 0.9979872317961 -57.53916905065 0.9979872317961 -57.53916905065 0.0102778146863 41.705215186223
4.350000000000001 0.0102987260179 41.380229180669 0.9979753419946 -57.87293985535 0.9979753419946 -57.87293985535 0.0103003333585 41.381700085044
4.375000000000000 0.0103209093036 41.057118467922 0.9979634402331 -58.20673023443 0.9979634402331 -58.20673023443 0.0103222690473 41.058290264518
4.400000000000000 0.0103425161875 40.734096597583 0.9979515269511 -58.54054027269 0.9979515269511 -58.54054027269 0.0103436200056 40.734989682502
4.425000000000001 0.0103635448222 40.411166724091 0.9979396026102 -58.87437005524 0.9979396026102 -58.87437005524 0.0103643845336 40.411802402335
4.450000000000000 0.0103839933936 40.088332129540 0.9979276676949 -59.20821966759 0.9979276676949 -59.20821966759 0.0103845609797 40.088732591175
4.475000000000001 0.0104038601225 39.765596223620 0.9979157227117 -59.54208919565 0.9979157227117 -59.54208919565 0.0104041477409 39.765784518288
4.500000000000000 0.0104231432641 39.442962557950 0.9979037681904 -59.87597872583 0.9979037681905 -59.87597872576 0.0104231432641 39.442962557922
4.525000000000000 0.0104418382479 39.120475470761 0.9978918122945 -60.20988821582 0.9978918122945 -60.20988821582 0.0104415469999 39.120314926178
4.550000000000001 0.0104599407644 38.798180371903 0.9978798634119 -60.54381764003 0.9978798634119 -60.54381764003 0.0104593588387 38.797890029328
4.575000000000000 0.0104774495257 38.476082352015 0.9978679224055 -60.87776711067 0.9978679224055 -60.87776711067 0.0104765779571 38.475692501632
4.600000000000001 0.0104943632891 38.154186504960 0.9978559901284 -61.21173674091 0.9978559901284 -61.21173674091 0.0104932035786 38.153726912836
4.625000000000000 0.0105106808572 37.832497910708 0.9978440674215 -61.54572664487 0.9978440674215 -61.54572664487 0.0105092349723 37.831997761609
4.650000000000000 0.0105264010781 37.511021632586 0.9978321551125 -61.87973693756 0.9978321551125 -61.87973693756 0.0105246714521 37.510509473584
4.675000000000001 0.0105415228447 37.189762714519 0.9978202540149 -62.21376773483 0.9978202540149 -62.21376773483 0.0105395123754 37.189266399445
4.700000000000000 0.0105560450950 36.868726178358 0.9978083649264 -62.54781915341 0.9978083649264 -62.54781915341 0.0105537571426 36.868272813160
4.725000000000001 0.0105699668112 36.547917021186 0.9977964886282 -62.88189131080 0.9977964886282 -62.88189131080 0.0105674051956 36.547532910308
4.750000000000000 0.0105832870203 36.227340212672 0.9977846258838 -63.21598432526 0.9977846258838 -63.21598432526 0.0105804560173 36.227050806467
4.775000000000000 0.0105960047929 35.907000692440 0.9977727774379 -63.55009831580 0.9977727774379 -63.55009831580 0.0105929091298 35.906830535778
4.800000000000001 0.0106081192437 35.586903367476 0.9977609440150 -63.88423340211 0.9977609440150 -63.88423340211 0.0106047640940 35.586876049535
4.825000000000000 0.0106196295306 35.267053109535 0.9977491263187 -64.21838970453 0.9977491263187 -64.21838970453 0.0106160205082 35.267191214932
4.850000000000001 0.0106305348545 34.947454752588 0.9977373250307 -64.55256734401 0.9977373250307 -64.55256734401 0.0106266780069 34.947779813901
4.875000000000000 0.0106408344592 34.628113090283 0.9977255408093 -64.88676644206 0.9977255408093 -64.88676644206 0.0106367362596 34.628645542044
4.900000000000000 0.0106505276307 34.309032873395 0.9977137742889 -65.22098712073 0.9977137742889 -65.22098712073 0.0106461949698 34.309792007684
4.925000000000001 0.0106596136967 33.990218807356 0.9977020260785 -65.55522950254 0.9977020260785 -65.55522950254 0.0106550538735 33.991222731034
4.950000000000000 0.0106680920267 33.671675549722 0.9976902967611 -65.88949371043 0.9976902967611 -65.88949371043 0.0106633127382 33.672941143460
4.975000000000001 0.0106759620309 33.353407707728 0.9976785868924 -66.22377986773 0.9976785868924 -66.22377986773 0.0106709713617 33.354950586863
5.000000000000000 0.0106832231601 33.035419835790 0.9976668970003 -66.55808809812 0.9976668970003 -66.55808809812 0.0106780295702 33.037254313181
5.025000000000000 0.0106898749052 32.717716433066 0.9976552275834 -66.89241852552 0.9976552275834 -66.89241852552 0.0106844872180 32.719855484001
5.050000000000001 0.0106959167965 32.400301941002 0.9976435791103 -67.22677127413 0.9976435791103 -67.22677127413 0.0106903441851 32.402757170283
5.075000000000000 0.0107013484033 32.083180740877 0.9976319520190 -67.56114646830 0.9976319520190 -67.56114646830 0.0106956003767 32.085962352218
5.100000000000001 0.0107061693333 31.766357151411 0.9976203467154 -67.89554423249 0.9976203467154 -67.89554423249 0.0107002557214 31.769473919206
5.125000000000000 0.0107103792320 31.449835426287 0.9976087635730 -68.22996469125 0.9976087635730 -68.22996469125 0.0107043101698 31.453294669935